<?xml version="1.0"?>
<VTKFile type="UnstructuredGrid" version="0.1" byte_order="LittleEndian" compressor="vtkZLibDataCompressor">
<UnstructuredGrid>
<Piece NumberOfPoints="441" NumberOfCells="400">
<PointData>
<DataArray type="Float64" Name="displacement" NumberOfComponents="3" format="ascii" >
0.0 2.1920580853719167e-59  0.
4.134541862205598e-59 1.9425715559044233e-59  0.
6.415371969675488e-59 3.385874253289695e-60  0.
1.2245010058175783e-59 -5.527888964992976e-59  0.
-3.849181903592506e-58 -3.418117098470827e-58  0.
-2.3473397502122895e-57 -1.6203506935314787e-57  0.
-1.0194581502083482e-56 -6.226118791716089e-57  0.
-3.6900993905740087e-56 -2.0478415172846165e-56  0.
-1.1426580344939414e-55 -5.688257178958666e-56  0.
-3.0796498319504033e-55 -1.3681022089129289e-55  0.
-7.294870406013843e-55 -2.8470333121506384e-55  0.
-1.5300290340297813e-54 -5.158306324661208e-55  0.
-2.857947483930679e-54 -8.12084881496882e-55  0.
-4.767845520927887e-54 -1.0978242605743822e-54  0.
-7.112253010425266e-54 -1.2465938643260739e-54  0.
-9.46093648782381e-54 -1.1022245341622886e-54  0.
-1.1141657768044334e-53 -5.7778573850879676e-55  0.
-1.1412275688359872e-53 3.0100583259958387e-55  0.
-9.804910911537094e-54 1.3579085880703913e-54  0.
-5.973357394702759e-54 2.0318695690949193e-54  0.
-3.4412288830404845e-54 4.3372884980858844e-54  0.
0.0 4.620458608586219e-56  0.
8.133707744130106e-56 3.5173361956188384e-56  0.
1.3837664504254807e-55 2.1890227895647465e-56  0.
1.3435629661857422e-55 -2.5963934974687344e-56  0.
-8.215752302159631e-56 -1.909457681153192e-55  0.
-1.270350255053443e-54 -9.992100665101926e-55  0.
-6.787467691623529e-54 -4.5257538498715344e-54  0.
-2.784215176539957e-53 -1.6555635612144778e-53  0.
-9.693844751480215e-53 -5.261802421496701e-53  0.
-2.8999555884799426e-52 -1.406327787116588e-52  0.
-7.545926566804816e-52 -3.2438584026861883e-52  0.
-1.7219971347162255e-51 -6.43819269370476e-52  0.
-3.459708142595862e-51 -1.0952187781155977e-51  0.
-6.150979997304047e-51 -1.5979684070581893e-51  0.
-9.67645834258498e-51 -1.9298237712474767e-51  0.
-1.345713959062211e-50 -1.8533926937465598e-51  0.
-1.641914157942295e-50 -1.1089791311163746e-51  0.
-1.728235422339132e-50 2.353108509264829e-52  0.
-1.5142086084281542e-50 1.990035524094172e-51  0.
-9.319791076112488e-51 3.1342151429105026e-51  0.
-5.391407532314783e-51 6.818989038534957e-51  0.
0.0 1.4041194659682837e-52  0.
3.027917985982246e-52 1.625357573405941e-52  0.
5.1843499167745765e-52 5.323862048598315e-53  0.
5.769661601073238e-52 5.264605082995579e-54  0.
3.4850737552335066e-52 -2.3414075491860976e-52  0.
-9.729428030094994e-52 -1.0896975303481318e-51  0.
-7.352077499671318e-51 -5.300474962929533e-51  0.
-3.5976683555020303e-50 -2.3366266825721975e-50  0.
-1.401242496008502e-49 -8.091958116178749e-50  0.
-4.701897623290267e-49 -2.4953217647243244e-49  0.
-1.3630803435203248e-48 -6.442882202437147e-49  0.
-3.429536422978735e-48 -1.4241034325022245e-48  0.
-7.549462837987507e-48 -2.6992958990580965e-48  0.
-1.449997216956097e-47 -4.256626325505347e-48  0.
-2.4421649902729133e-47 -5.671953512721122e-48  0.
-3.5886728798078173e-47 -5.801476559840931e-48  0.
-4.580997527309266e-47 -4.122982545900827e-48  0.
-4.989298281125065e-47 4.780554344648784e-51  0.
-4.478427953023644e-47 5.370081659900979e-48  0.
-2.794851898937512e-47 9.320999921488765e-48  0.
-1.618136655163952e-47 2.0570030905579494e-47  0.
0.0 7.393604276631569e-49  0.
1.048236925829944e-48 3.0939896403853187e-49  0.
1.723910257314341e-48 3.669105475385391e-49  0.
1.9314930082143737e-48 -1.5943915013847307e-49  0.
1.5742670556958077e-48 -1.9807083783442597e-49  0.
1.286005811306132e-49 -1.2503373117844879e-48  0.
-6.533199478092845e-48 -5.424193488065254e-48  0.
-3.7350665906224815e-47 -2.5450568262489096e-47  0.
-1.7514598118730003e-46 -1.1255323955750546e-46  0.
-6.524152121477219e-46 -3.6537603266024644e-46  0.
-2.1169823179450462e-45 -1.100980146675305e-45  0.
-5.962260199233593e-45 -2.7484266862693355e-45  0.
-1.4488516900345258e-44 -5.78606688238924e-45  0.
-3.0680115406313034e-44 -1.0419572375122971e-44  0.
-5.590650550805847e-44 -1.4825895186723658e-44  0.
-8.81329997156197e-44 -1.7427140389201855e-44  0.
-1.1872138864745144e-43 -1.3163073526580916e-44  0.
-1.3484862318443669e-43 -3.0811660030460017e-45  0.
-1.2475571310092394e-43 1.3975485063746842e-44  0.
-7.89331573628776e-44 2.5635298077334284e-44  0.
-4.618180130912588e-44 5.890180789294168e-44  0.
0.0 1.014646338702692e-45  0.
3.153667078728206e-45 2.1401873834370983e-45  0.
5.238367888407278e-45 -5.190880881740454e-47  0.
5.396477130823226e-45 2.080868676837268e-46  0.
4.4662521315672835e-45 -1.1373982931042959e-45  0.
2.4635449522960615e-45 -8.69000241652475e-46  0.
-3.621781957591602e-45 -5.2293903206934435e-45  0.
-3.2606298297955795e-44 -2.3816850157936466e-44  0.
-1.6577080495237704e-43 -1.0962356501698183e-43  0.
-7.82731529229649e-43 -5.082907210641267e-43  0.
-2.811678391874251e-42 -1.5236021709686313e-42  0.
-8.820809694602953e-42 -4.4931580087329724e-42  0.
-2.402956160263856e-41 -1.0732762402641435e-41  0.
-5.59007931757386e-41 -2.117126063368529e-41  0.
-1.1254271582888072e-40 -3.5517602554165024e-41  0.
-1.9135845696410707e-40 -4.337901738133105e-41  0.
-2.758955926749195e-40 -4.114865791136479e-41  0.
-3.289282667302772e-40 -1.2272760075593763e-41  0.
-3.148799365067766e-40 2.856171702950851e-41  0.
-2.034530426543709e-40 6.626441474926645e-41  0.
-1.1811281771146216e-40 1.5211770519238112e-40  0.
0.0 6.752836648288706e-42  0.
9.490047206068897e-42 2.7317939917815182e-42  0.
1.4597201595770761e-41 2.4064146110994165e-42  0.
1.467380488265981e-41 -2.3554275515757986e-42  0.
1.0408497062960074e-41 -1.896138815546935e-42  0.
5.871809518722284e-42 -2.6507373924974917e-42  0.
9.483350826774257e-43 -2.2833551873198344e-42  0.
-2.0796272564160196e-41 -1.9519396578608679e-41  0.
-1.309668665082869e-40 -9.091845312486575e-41  0.
-6.438107131524391e-40 -4.231606033353557e-40  0.
-3.1917625447744797e-39 -2.128888668100792e-39  0.
-1.1079865128462767e-38 -5.770875579379401e-39  0.
-3.317996450920517e-38 -1.6360925625283984e-38  0.
-8.612969405018514e-38 -3.6651803408547105e-38  0.
-1.89136326633913e-37 -6.645611170787799e-38  0.
-3.5555390219597293e-37 -1.0018821831625912e-37  0.
-5.523280543667495e-37 -9.647980825036391e-38  0.
-7.018719392985505e-37 -5.43303141752644e-38  0.
-7.027539812271294e-37 5.955076985079745e-38  0.
-4.6066948586739415e-37 1.4335535020462946e-37  0.
-2.7197716236958987e-37 3.519901903214156e-37  0.
0.0 2.7069498310917895e-38  0.
3.224428629676375e-38 5.023081020477002e-39  0.
4.4713955744878226e-38 7.826198387757316e-39  0.
4.17732935412479e-38 -1.1081593905682468e-38  0.
2.373324657528112e-38 -6.8134095946531e-39  0.
1.0577317913908709e-38 -6.39484467046043e-39  0.
2.1960829546313445e-39 -1.990115168136434e-39  0.
-6.775993789874556e-39 -7.025082004115358e-39  0.
-8.062320963550145e-38 -6.704841606462932e-38  0.
-4.4587319880853226e-37 -2.992161382393411e-37  0.
-2.2145107346300246e-36 -1.474432435135619e-36  0.
-1.1870617042909269e-35 -8.197347709605156e-36  0.
-3.936458954370221e-35 -1.934506486605145e-35  0.
-1.0925556887827218e-34 -5.063822788168951e-35  0.
-2.6425124051462e-34 -1.0455421591380915e-34  0.
-5.46780353782368e-34 -1.7855816216496591e-34  0.
-9.503637407952218e-34 -2.242632751219022e-34  0.
-1.3226291147057777e-33 -1.5237320707387827e-34  0.
-1.4235963277704721e-33 6.872680065536088e-35  0.
-9.612629914178798e-34 3.0002256289906205e-34  0.
-5.540049566319043e-34 7.420555103673929e-34  0.
0.0 -1.6613205245025963e-35  0.
1.0647090300678139e-34 1.2100274764757232e-34  0.
1.5622605027207e-34 -6.691034381052817e-35  0.
9.764787875713702e-35 5.209238313696196e-36  0.
5.627333371167254e-35 -4.5498658985679706e-35  0.
5.708847462236623e-36 -5.26629088324055e-36  0.
2.307242616237271e-37 -2.2503517601842216e-37  0.
-3.6246549415669063e-38 -5.995821872366094e-38  0.
-4.369741044130544e-35 -4.379352979916775e-35  0.
-2.8929132183404307e-34 -2.0233326908601045e-34  0.
-1.3577247522418212e-33 -8.696871334255262e-34  0.
-6.74692557652999e-33 -4.542277239938156e-33  0.
-4.3194842238380954e-32 -3.190328184162714e-32  0.
-1.331333267301996e-31 -5.824010629092732e-32  0.
-3.253364625726457e-31 -1.3445532782877198e-31  0.
-7.07660604906119e-31 -2.484700075752338e-31  0.
-1.4223782402163142e-30 -4.62238853333538e-31  0.
-2.2732506235972503e-30 -4.081434634924949e-31  0.
-2.841188761513496e-30 -1.0594428495500653e-31  0.
-2.080670137007256e-30 6.0408400996705705e-31  0.
-1.197722202475426e-30 1.7019389228530477e-30  0.
0.0 5.732961712884079e-31  0.
3.806406386040348e-31 -2.1113198413043027e-31  0.
2.927602772159804e-31 1.5708236719216391e-31  0.
2.4680124788231193e-31 -2.2204162972294402e-31  0.
1.0743458213400949e-32 -1.0224937224668739e-32  0.
3.2626482618915698e-34 -3.262681726838761e-34  0.
5.138218187998363e-36 -5.662834907558776e-36  0.
-2.7302245071635843e-37 -3.005542648569243e-37  0.
-1.3556305239504487e-34 -2.219752736972898e-34  0.
-2.3216123615779754e-31 -2.3080085243438704e-31  0.
-9.66140993292555e-31 -5.085999411458755e-31  0.
-3.708562329720337e-30 -2.2510725019982843e-30  0.
-1.7355604909978434e-29 -1.1399337354237838e-29  0.
-1.5922055572634259e-28 -1.3367951151309058e-28  0.
-4.474438724771255e-28 -1.5497478617730034e-28  0.
-9.079578908511056e-28 -2.993548450842409e-28  0.
-1.6836252826012498e-27 -4.751940968970839e-28  0.
-3.3278434645907635e-27 -1.2561992473895736e-27  0.
-5.19246806246826e-27 -4.076342788538959e-28  0.
-4.5209991574989024e-27 4.8497261577752745e-28  0.
-3.55982550533657e-27 4.512908366185087e-27  0.
0.0 -2.6141982232249253e-28  0.
6.175383996885611e-28 7.791194745725123e-28  0.
6.113236586216791e-28 -6.343148317580082e-28  0.
1.413493299285495e-29 -1.3758141485822333e-29  0.
3.1882608299662363e-31 -3.3203886273789978e-31  0.
3.866999697829481e-33 -4.571905124304332e-33  0.
-3.092640246338079e-35 2.1002850189772034e-35  0.
-7.241750543836393e-37 -2.1641722906855242e-36  0.
-7.647285883857921e-34 -1.1221326882070112e-33  0.
-3.481592050729392e-31 -8.242078314084745e-31  0.
-7.336203907048945e-28 -7.600677159389042e-28  0.
-2.4613058994641572e-27 -9.683542037804622e-28  0.
-8.22108661028326e-27 -4.707185601583694e-27  0.
-3.38324824408206e-26 -2.188242253559378e-26  0.
-4.635432378496412e-25 -3.5098129294057223e-25  0.
-1.1051644086305275e-24 -1.8330724582114917e-25  0.
-1.789846405445966e-24 -4.174000643350251e-25  0.
-3.0084979936697964e-24 -7.673313415619179e-25  0.
-6.502692444967502e-24 -1.8826808595789615e-24  0.
-7.549898057103844e-24 8.372177072301607e-26  0.
-7.847567113765212e-24 7.092595777806452e-24  0.
0.0 2.988577506945152e-20  0.
9.039768790968342e-25 2.988401247375558e-20  0.
1.1034670975538964e-26 2.9884579047378393e-20  0.
1.9776606689220454e-28 2.9884591313762144e-20  0.
1.9164108018927932e-30 2.988459153084619e-20  0.
-1.8112552200121243e-32 2.9884591533449776e-20  0.
3.2086498487561557e-34 2.98845915334393e-20  0.
2.3248685595082117e-36 2.9884591533439557e-20  0.
-3.468537646999571e-33 2.988459153343421e-20  0.
-2.1811023864771306e-30 2.9884591530152976e-20  0.
-7.49949687510974e-28 2.9884589503027365e-20  0.
-1.250589945233571e-24 2.988354417699998e-20  0.
-3.795329170978249e-24 2.988341527676835e-20  0.
-1.3192490868388642e-23 2.987670255987335e-20  0.
-7.844468065805955e-23 2.978117502283918e-20  0.
-3.8261124843177184e-22 2.9206609675404747e-20  0.
-7.584261368020305e-22 2.850246289703984e-20  0.
-1.175581532486248e-21 2.6454905255349796e-20  0.
-2.1963516704513816e-21 2.3396414675457478e-20  0.
-3.1003074614215964e-21 1.7706983766317894e-20  0.
-9.221330611096796e-21 1.785501931446924e-20  0.
0.0 3.591147600997541e-18  0.
4.941906108041637e-24 3.591579028758021e-18  0.
6.275739077070363e-26 3.591584460649926e-18  0.
5.185279523619327e-28 3.591584545152402e-18  0.
-7.143095117877341e-30 3.5915845461132926e-18  0.
1.5686301221490358e-31 3.591584546110212e-18  0.
5.380251611411245e-34 3.591584546110338e-18  0.
1.791604463835151e-34 3.59158454611034e-18  0.
-1.266166743058484e-32 3.5915845461103174e-18  0.
-1.4193593596950176e-30 3.5915845461036645e-18  0.
-4.790042912347405e-27 3.591584538015211e-18  0.
-7.308340136670219e-25 3.5915803129827535e-18  0.
-4.955562269588364e-22 3.59056710230264e-18  0.
-3.0814786563538834e-21 3.5879601052329685e-18  0.
-1.1841399060458387e-20 3.573701881358066e-18  0.
-3.29020353574779e-20 3.5305027895574675e-18  0.
-7.699692959615036e-20 3.4205411977611693e-18  0.
-1.3873860013703203e-19 3.2086913208622363e-18  0.
-2.280169575277699e-19 2.8517025875355747e-18  0.
-3.404688423712285e-19 2.3217523385555793e-18  0.
-1.2226795453265454e-18 2.3821410851862533e-18  0.
0.0 3.2401846950312656e-16  0.
3.838487537454973e-24 3.240192039244964e-16  0.
4.088942791311904e-26 3.240192202455447e-16  0.
-1.7341158411416658e-27 3.2401922042251403e-16  0.
5.395445768137363e-29 3.240192204221394e-16  0.
2.2475996641797642e-31 3.240192204221829e-16  0.
9.302603367538633e-32 3.240192204221833e-16  0.
6.289107162607054e-32 3.240192204221833e-16  0.
1.2545700262751705e-32 3.2401922042218315e-16  0.
-3.0232862946871327e-29 3.240192204221424e-16  0.
6.918719345697415e-26 3.240192204627616e-16  0.
-8.552557031543066e-24 3.240192073974772e-16  0.
-3.985515263769221e-21 3.240164107508919e-16  0.
-1.5410854048472935e-19 3.238635778251697e-16  0.
-6.778613632311195e-19 3.230627756520573e-16  0.
-2.3537745538536634e-18 3.201206419958733e-16  0.
-5.725607673759289e-18 3.122602784600689e-16  0.
-1.1824426651630711e-17 2.9513654070083027e-16  0.
-2.0063074109596704e-17 2.6403581986209435e-16  0.
-3.132842851147368e-17 2.1678569198976122e-16  0.
-1.1461308347382506e-16 2.2323480150224015e-16  0.
0.0 2.321734311192876e-14  0.
-1.851924806771126e-23 2.3217342082352995e-14  0.
-1.9401393284681507e-25 2.3217342089380004e-14  0.
1.2181158671425157e-26 2.3217342089396996e-14  0.
3.3309393809461446e-29 2.321734208940634e-14  0.
1.5603670774515303e-29 2.321734208940642e-14  0.
1.3772931326270211e-30 2.3217342089406434e-14  0.
1.7083928746760027e-30 2.321734208940644e-14  0.
1.1622604198535996e-30 2.3217342089406434e-14  0.
-9.893982795727304e-29 2.3217342089406273e-14  0.
-1.5693177583620774e-25 2.3217342089459922e-14  0.
3.8619613010963627e-23 2.321734235940325e-14  0.
-2.0828102147590634e-20 2.321732907002242e-14  0.
-1.09370167216443e-18 2.3216524422003523e-14  0.
-2.779994494817395e-17 2.3189265691770915e-14  0.
-1.089684968185833e-16 2.3058466982431496e-14  0.
-3.4546891238649856e-16 2.2619975726160023e-14  0.
-7.557444397023808e-16 2.1553539234602863e-14  0.
-1.4155431040229813e-15 1.9450201584048813e-14  0.
-2.2725580089063118e-15 1.6097809399191338e-14  0.
-8.558147791769148e-15 1.6671920454492518e-14  0.
0.0 1.2843163262988252e-12  0.
1.8434249053168723e-23 1.2843163248425675e-12  0.
1.2991168267562448e-24 1.2843163248216311e-12  0.
-6.565073951891014e-27 1.2843163248229266e-12  0.
4.258485050686455e-27 1.2843163248229317e-12  0.
1.8772184899949315e-28 1.2843163248229361e-12  0.
2.2363439660000757e-28 1.2843163248229361e-12  0.
2.4390611879622117e-28 1.2843163248229363e-12  0.
2.2773817002202963e-28 1.2843163248229361e-12  0.
8.516769151634753e-29 1.2843163248229355e-12  0.
-2.943743211575936e-25 1.284316324822355e-12  0.
-1.9947912338191123e-22 1.2843163241753856e-12  0.
-7.067585741213431e-20 1.284316287600908e-12  0.
-4.490127391351935e-18 1.2843136467316847e-12  0.
-1.8323131094937951e-16 1.2841820828887232e-12  0.
-3.879229678435273e-15 1.280387186090895e-12  0.
-1.33380581134025e-14 1.2640629422146753e-12  0.
-3.804380931330359e-14 1.2148552622501305e-12  0.
-7.374709447638247e-14 1.1076568823227537e-12  0.
-1.2999974680752332e-13 9.255100985218802e-13  0.
-4.92407675088975e-13 9.634776704642419e-13  0.
0.0 5.283277814157824e-11  0.
-3.109734424199757e-24 5.283277814527716e-11  0.
-3.107881842214007e-24 5.283277814531098e-11  0.
6.36863505770754e-25 5.283277814530744e-11  0.
-2.49366828634097e-26 5.2832778145308124e-11  0.
9.304976016418215e-28 5.28327781453081e-11  0.
3.621182821192066e-28 5.283277814530809e-11  0.
-2.656483677175842e-28 5.283277814530809e-11  0.
-5.753684361700883e-28 5.283277814530809e-11  0.
4.2951248009851985e-27 5.283277814530809e-11  0.
-3.093040671275494e-25 5.283277814530693e-11  0.
-1.0388311341952992e-21 5.2832778144767904e-11  0.
-1.7876632189628454e-19 5.28327780713742e-11  0.
-1.3148716659283078e-17 5.283277194742958e-11  0.
-6.897403859877334e-16 5.283238833761729e-11  0.
-2.3564724885817124e-14 5.2815991273110466e-11  0.
-4.027263314068582e-13 5.242324615066836e-11  0.
-1.19196657962668e-12 5.092944981216536e-11  0.
-3.003142424442157e-12 4.696885654307119e-11  0.
-5.351794394837068e-12 3.967897005779169e-11  0.
-2.1409478301595486e-11 4.1697860561607686e-11  0.
0.0 1.5358207158220088e-09  0.
-4.816104027261566e-22 1.5358207158185649e-09  0.
3.419075042094623e-23 1.5358207158183748e-09  0.
-6.542665060052717e-24 1.5358207158184309e-09  0.
1.5483144101465522e-25 1.5358207158184253e-09  0.
9.287259686078517e-26 1.5358207158184253e-09  0.
1.1737534573039129e-25 1.5358207158184253e-09  0.
1.1661423102295135e-25 1.5358207158184255e-09  0.
6.801527552851248e-26 1.5358207158184249e-09  0.
2.4465997772949713e-25 1.5358207158184253e-09  0.
-4.133973788633437e-25 1.535820715818423e-09  0.
-2.442426174144227e-21 1.535820715817364e-09  0.
-3.6584277917373627e-19 1.535820715702595e-09  0.
-2.9789560229901775e-17 1.5358207049985236e-09  0.
-1.8351099406665456e-15 1.5358199265918547e-09  0.
-8.026378820412689e-14 1.5357784795895886e-09  0.
-2.235516353873986e-12 1.5342818357379853e-09  0.
-2.956614406535169e-11 1.505578066987041e-09  0.
-7.368252143184926e-11 1.4110228088420103e-09  0.
-1.6888376838868094e-10 1.207285845363891e-09  0.
-6.491454106921581e-10 1.274624588632772e-09  0.
0.0 2.9336499601152196e-08  0.
8.976547225140329e-22 2.933649960115806e-08  0.
-5.917573107349346e-22 2.9336499601157748e-08  0.
1.5143036664495004e-23 2.9336499601157404e-08  0.
1.0042178891265331e-23 2.933649960115739e-08  0.
1.0589531574947855e-23 2.9336499601157394e-08  0.
9.822789328908281e-24 2.9336499601157377e-08  0.
9.888301971852438e-24 2.9336499601157397e-08  0.
8.824720217708082e-24 2.9336499601157377e-08  0.
9.720348500307404e-24 2.9336499601157394e-08  0.
1.0072938053114565e-23 2.9336499601157387e-08  0.
-4.9156429447658705e-21 2.933649960115617e-08  0.
-6.203546626324527e-19 2.9336499601014186e-08  0.
-5.46467427891547e-17 2.933649958660074e-08  0.
-3.73895451676379e-15 2.9336498436170125e-08  0.
-1.9082472769172903e-13 2.9336427419264275e-08  0.
-6.776280733929199e-12 2.933327419052943e-08  0.
-1.4834236786981415e-10 2.9238837868594716e-08  0.
-1.4324931677349077e-09 2.786781404958217e-08  0.
-3.1277766152877832e-09 2.4280705803695565e-08  0.
-1.3601363639145335e-08 2.5925105414245396e-08  0.
0.0 3.302040560347657e-07  0.
1.8238775674157995e-21 3.3020405603475824e-07  0.
-6.248590988704306e-22 3.3020405603475935e-07  0.
3.2476262575545597e-24 3.3020405603475977e-07  0.
-8.442899740679452e-24 3.3020405603475967e-07  0.
-1.5283375638815502e-23 3.3020405603475977e-07  0.
-1.4457836188756838e-23 3.3020405603475977e-07  0.
-1.766917727909691e-23 3.302040560347599e-07  0.
-2.2047965694057253e-23 3.3020405603475977e-07  0.
1.0691090869739494e-23 3.3020405603475977e-07  0.
-2.1578292374213246e-23 3.3020405603475967e-07  0.
-7.121782969610475e-21 3.3020405603475887e-07  0.
-9.011025453073772e-19 3.302040560346206e-07  0.
-8.32136163838775e-17 3.3020405602017244e-07  0.
-6.092287865786739e-15 3.3020405478757517e-07  0.
-3.419918195276665e-13 3.3020397229362e-07  0.
-1.4042997545969323e-11 3.301997211455078e-07  0.
-3.91335122086433e-10 3.300458436895316e-07  0.
-6.430232097310099e-09 3.263291946597607e-07  0.
-4.392183935962448e-08 2.9123177691862987e-07  0.
-1.5708041837285925e-07 3.043432192447421e-07  0.
0.0 1.8549661727509205e-06  0.
3.839916246784201e-22 1.854966172750922e-06  0.
3.291902698145023e-23 1.8549661727509215e-06  0.
1.3581994539317495e-22 1.8549661727509217e-06  0.
-1.2406673261107272e-22 1.854966172750922e-06  0.
3.1884858898814553e-24 1.8549661727509215e-06  0.
-4.0576169875053203e-23 1.8549661727509215e-06  0.
1.2376579686416252e-23 1.8549661727509217e-06  0.
-1.1938073312347173e-22 1.8549661727509215e-06  0.
1.2360816385387625e-22 1.8549661727509215e-06  0.
-1.2797412056301724e-22 1.8549661727509215e-06  0.
-8.161649731403118e-21 1.8549661727509205e-06  0.
-1.1214211757523554e-18 1.8549661727508358e-06  0.
-1.0661868494870357e-16 1.854966172741592e-06  0.
-8.110413882163062e-15 1.8549661719282526e-06  0.
-4.800817861069019e-13 1.854966114311583e-06  0.
-2.1365028970822166e-11 1.8549629596914243e-06  0.
-6.792475948507665e-10 1.8548308025928711e-06  0.
-1.4375702653792343e-08 1.851164383990621e-06  0.
-1.7487428547049817e-07 1.7908677921596406e-06  0.
-9.984768178459667e-07 1.8122517924550175e-06  0.
0.0 4.449999999999996e-06  0.
-2.6170901113831473e-22 4.449999999999996e-06  0.
-3.2653916918696057e-23 4.449999999999996e-06  0.
9.127620041679521e-22 4.449999999999996e-06  0.
-9.140039612186928e-22 4.449999999999996e-06  0.
1.9317208896899777e-23 4.449999999999996e-06  0.
-1.5050608751817954e-22 4.449999999999996e-06  0.
1.3103602236888097e-22 4.449999999999996e-06  0.
-2.6445087016571864e-22 4.449999999999996e-06  0.
1.8590186346427938e-22 4.449999999999996e-06  0.
-2.24765565636677e-22 4.449999999999996e-06  0.
-8.53909480939677e-21 4.449999999999996e-06  0.
-1.2045649243703349e-18 4.449999999999996e-06  0.
-1.15725715568451e-16 4.449999999999996e-06  0.
-8.910509367339964e-15 4.449999999999996e-06  0.
-5.368053588041309e-13 4.449999999999996e-06  0.
-2.449762665571106e-11 4.449999999999996e-06  0.
-8.152162345559141e-10 4.449999999999996e-06  0.
-1.8593886284696903e-08 4.449999999999996e-06  0.
-2.6748606903121947e-07 4.449999999999996e-06  0.
-1.7076764435273997e-06 4.449999999999996e-06  0.
</DataArray>
<DataArray type="Float64" Name="sigma_xx" NumberOfComponents="1" format="ascii" >
0.0 
0.0 
0.0 
0.0 
0.0 
0.0 
0.0 
0.0 
0.0 
0.0 
0.0 
0.0 
0.0 
0.0 
0.0 
0.0 
0.0 
0.0 
0.0 
0.0 
0.0 
0.0 
0.0 
0.0 
0.0 
0.0 
0.0 
0.0 
0.0 
0.0 
0.0 
0.0 
0.0 
0.0 
0.0 
0.0 
0.0 
0.0 
0.0 
0.0 
0.0 
0.0 
0.0 
0.0 
0.0 
0.0 
0.0 
0.0 
0.0 
0.0 
0.0 
0.0 
0.0 
0.0 
0.0 
0.0 
0.0 
0.0 
0.0 
0.0 
0.0 
0.0 
0.0 
0.0 
0.0 
0.0 
0.0 
0.0 
0.0 
0.0 
0.0 
0.0 
0.0 
0.0 
0.0 
0.0 
0.0 
0.0 
0.0 
0.0 
0.0 
0.0 
0.0 
0.0 
0.0 
0.0 
0.0 
0.0 
0.0 
0.0 
0.0 
0.0 
0.0 
0.0 
0.0 
0.0 
0.0 
0.0 
0.0 
0.0 
0.0 
0.0 
0.0 
0.0 
0.0 
0.0 
0.0 
0.0 
0.0 
0.0 
0.0 
0.0 
0.0 
0.0 
0.0 
0.0 
0.0 
0.0 
0.0 
0.0 
0.0 
0.0 
0.0 
0.0 
0.0 
0.0 
0.0 
0.0 
0.0 
0.0 
0.0 
0.0 
0.0 
0.0 
0.0 
0.0 
0.0 
0.0 
0.0 
0.0 
0.0 
0.0 
0.0 
0.0 
0.0 
0.0 
0.0 
0.0 
0.0 
0.0 
0.0 
0.0 
0.0 
0.0 
0.0 
0.0 
0.0 
0.0 
0.0 
0.0 
0.0 
0.0 
0.0 
0.0 
0.0 
0.0 
0.0 
0.0 
0.0 
0.0 
0.0 
0.0 
0.0 
0.0 
0.0 
0.0 
0.0 
0.0 
0.0 
0.0 
0.0 
0.0 
0.0 
0.0 
0.0 
0.0 
0.0 
0.0 
0.0 
0.0 
0.0 
0.0 
0.0 
0.0 
0.0 
0.0 
0.0 
0.0 
0.0 
0.0 
0.0 
0.0 
0.0 
0.0 
0.0 
0.0 
0.0 
0.0 
0.0 
0.0 
1.0258460747536443e-05 
1.0258460747536443e-05 
1.0258460747536443e-05 
1.0258460747536443e-05 
1.0258460747536443e-05 
1.0258460747536443e-05 
1.0258460747536443e-05 
1.0258460747536443e-05 
1.0258460747536443e-05 
1.0258460747536443e-05 
1.0258460747536443e-05 
1.0258460747536443e-05 
1.0180745135812682e-05 
1.002531391236516e-05 
9.9475983006414e-06 
9.797718192317003e-06 
9.342526752220689e-06 
8.64308624670684e-06 
7.477352070850426e-06 
5.4622972811557685e-06 
4.218847493575593e-06 
0.0009074074824866326 
0.0009074074824866326 
0.0009074074824866326 
0.0009074074824866326 
0.0009074074824866326 
0.0009074074824866326 
0.0009074074824866326 
0.0009074074824866326 
0.0009074074824866326 
0.0009074074824866326 
0.0009074074824866326 
0.0009074074824866326 
0.0009070355577733832 
0.000905303609854968 
0.0009000855616392297 
0.0008862355294070309 
0.0008550715691058027 
0.0007974287896672647 
0.0007020495296217175 
0.0005190015084366448 
0.00039486192093818296 
0.06499822902128469 
0.06499822902128469 
0.06499822902128469 
0.06499822902128469 
0.06499822902128469 
0.06499822902128469 
0.06499822902128469 
0.06499822902128469 
0.06499822902128469 
0.06499822902128469 
0.06499822902128469 
0.06499830673689641 
0.06499596416631445 
0.06493937609874931 
0.06470123881108233 
0.0639123642898198 
0.06202123259413381 
0.05818667769830197 
0.051555681945814044 
0.0382831821799101 
0.029093349951381228 
3.595178132975717 
3.595178132975717 
3.595178132975717 
3.595178132975717 
3.595178132975717 
3.595178132975717 
3.595178132975717 
3.595178132975717 
3.595178132975717 
3.595178132975717 
3.595178132975717 
3.595178138526832 
3.595167630265904 
3.594769992787404 
3.58692165414176 
3.55748683844581 
3.469382253706853 
3.2788525672344795 
2.924735947873457 
2.181911512577627 
1.66880499419264 
147.86677764444528 
147.86677764444528 
147.86677764444528 
147.86677764444528 
147.86677764444528 
147.86677764444528 
147.86677764444528 
147.86677764444528 
147.86677764444528 
147.86677764444528 
147.86677764444528 
147.8667772114583 
147.86674374933634 
147.8651083353099 
147.81379643058472 
146.99972771259334 
144.34287293751953 
137.2770890017971 
123.47987953520429 
92.54340359865495 
70.23084876989213 
4296.708083950661 
4296.708083950661 
4296.708083950661 
4296.708083950661 
4296.708083950661 
4296.708083950661 
4296.708083950661 
4296.708083950661 
4296.708083950661 
4296.708083950661 
4296.708083950661 
4296.708082868194 
4296.707999473791 
4296.703198053418 
4296.509771056776 
4291.624772112533 
4232.019994962477 
4066.4466452899883 
3679.344803411698 
2770.9101565132055 
2138.912487914534 
81996.4373199422 
81996.4373199422 
81996.4373199422 
81996.4373199422 
81996.4373199422 
81996.4373199422 
81996.4373199422 
81996.4373199422 
81996.4373199422 
81996.4373199422 
81996.4373199422 
81996.43731799375 
81996.43714871805 
81996.42623922252 
81995.91022470251 
81979.25351561549 
81654.64343637682 
78793.8017302453 
72110.45834719928 
54192.636938255026 
40405.77584872861 
920526.6825529354 
920526.6825529354 
920526.6825529354 
920526.6825529354 
920526.6825529354 
920526.6825529354 
920526.6825529354 
920526.6825529354 
920526.6825529354 
920526.6825529354 
920526.6825529354 
920526.6825497602 
920526.6822614907 
920526.6622035131 
920525.6080620446 
920485.9060031403 
919501.3146720272 
905578.6880432649 
823606.5046077848 
617639.472480405 
480667.92080053693 
5118526.263056776 
5118526.263056776 
5118526.263056776 
5118526.263056776 
5118526.263056776 
5118526.263056776 
5118526.263056776 
5118526.263056776 
5118526.263056776 
5118526.263056776 
5118526.263056776 
5118526.263052307 
5118526.262634447 
5118526.232064811 
5118524.512278936 
5118453.228957282 
5116408.345384063 
5079643.7417758275 
4730375.925080944 
3320842.91557259 
2225788.4090320803 
11560794.123318471 
11560794.123318471 
11560794.123318471 
11560794.123318471 
11560794.123318471 
11560794.123318471 
11560794.123318471 
11560794.123318471 
11560794.123318471 
11560794.123318471 
11560794.123318471 
11560794.123313075 
11560794.122793263 
11560794.083630994 
11560791.793854348 
11560691.679162014 
11557579.400740866 
11493944.601200573 
10737813.768355202 
6691268.357808413 
3340233.395424311 
14569900.955756094 
14569900.955756094 
14569900.955756094 
14569900.955756094 
14569900.955756094 
14569900.955756094 
14569900.955756094 
14569900.955756094 
14569900.955756094 
14569900.955756094 
14569900.955756094 
14569900.955750342 
14569900.955191668 
14569900.912692174 
14569898.396995869 
14569786.444375133 
14566217.623842454 
14490036.273497459 
13524985.256667115 
7873105.577345515 
3113554.906170943 
</DataArray>
<DataArray type="Float64" Name="sigma_yy" NumberOfComponents="1" format="ascii" >
0.0 
0.0 
0.0 
0.0 
0.0 
0.0 
0.0 
0.0 
0.0 
0.0 
0.0 
0.0 
0.0 
0.0 
0.0 
0.0 
0.0 
0.0 
0.0 
0.0 
0.0 
0.0 
0.0 
0.0 
0.0 
0.0 
0.0 
0.0 
0.0 
0.0 
0.0 
0.0 
0.0 
0.0 
0.0 
0.0 
0.0 
0.0 
0.0 
0.0 
0.0 
0.0 
0.0 
0.0 
0.0 
0.0 
0.0 
0.0 
0.0 
0.0 
0.0 
0.0 
0.0 
0.0 
0.0 
0.0 
0.0 
0.0 
0.0 
0.0 
0.0 
0.0 
0.0 
0.0 
0.0 
0.0 
0.0 
0.0 
0.0 
0.0 
0.0 
0.0 
0.0 
0.0 
0.0 
0.0 
0.0 
0.0 
0.0 
0.0 
0.0 
0.0 
0.0 
0.0 
0.0 
0.0 
0.0 
0.0 
0.0 
0.0 
0.0 
0.0 
0.0 
0.0 
0.0 
0.0 
0.0 
0.0 
0.0 
0.0 
0.0 
0.0 
0.0 
0.0 
0.0 
0.0 
0.0 
0.0 
0.0 
0.0 
0.0 
0.0 
0.0 
0.0 
0.0 
0.0 
0.0 
0.0 
0.0 
0.0 
0.0 
0.0 
0.0 
0.0 
0.0 
0.0 
0.0 
0.0 
0.0 
0.0 
0.0 
0.0 
0.0 
0.0 
0.0 
0.0 
0.0 
0.0 
0.0 
0.0 
0.0 
0.0 
0.0 
0.0 
0.0 
0.0 
0.0 
0.0 
0.0 
0.0 
0.0 
0.0 
0.0 
0.0 
0.0 
0.0 
0.0 
0.0 
0.0 
0.0 
0.0 
0.0 
0.0 
0.0 
0.0 
0.0 
0.0 
0.0 
0.0 
0.0 
0.0 
0.0 
0.0 
0.0 
0.0 
0.0 
0.0 
0.0 
0.0 
0.0 
0.0 
0.0 
0.0 
0.0 
0.0 
0.0 
0.0 
0.0 
0.0 
0.0 
0.0 
0.0 
0.0 
0.0 
0.0 
0.0 
0.0 
0.0 
0.0 
0.0 
0.0 
0.0 
0.0 
0.0 
0.0 
0.0 
0.0 
0.0 
0.0 
0.0 
1.9051427102567683e-05 
1.9051427102567683e-05 
1.9051427102567683e-05 
1.9051427102567683e-05 
1.9051427102567683e-05 
1.9051427102567683e-05 
1.9051427102567683e-05 
1.9051427102567683e-05 
1.9051427102567683e-05 
1.9051427102567683e-05 
1.9051427102567683e-05 
1.9051427102567683e-05 
1.8907098109366412e-05 
1.8618440122963872e-05 
1.84741111297626e-05 
1.829092433069945e-05 
1.7635892746170608e-05 
1.6336931807359175e-05 
1.417199690934012e-05 
1.185718190299667e-05 
1.0880185641326532e-05 
0.0016851853246180324 
0.0016851853246180324 
0.0016851853246180324 
0.0016851853246180324 
0.0016851853246180324 
0.0016851853246180324 
0.0016851853246180324 
0.0016851853246180324 
0.0016851853246180324 
0.0016851853246180324 
0.0016851853246180324 
0.0016851853246180324 
0.0016847800932140442 
0.0016825152382438089 
0.0016752987885837454 
0.0016546208847501018 
0.0016047385642536935 
0.0015060619418250096 
0.0013378742558245447 
0.0011293466162243246 
0.0010248912829524668 
0.12071099675381444 
0.12071099675381444 
0.12071099675381444 
0.12071099675381444 
0.12071099675381444 
0.12071099675381444 
0.12071099675381444 
0.12071099675381444 