<?xml version="1.0"?>
<VTKFile type="UnstructuredGrid" version="0.1" byte_order="LittleEndian" compressor="vtkZLibDataCompressor">
<UnstructuredGrid>
<Piece NumberOfPoints="441" NumberOfCells="400">
<PointData>
<DataArray type="Float64" Name="displacement" NumberOfComponents="3" format="ascii" >
0.0 1.4890486321318253e-10  0.
-4.9386062040851516e-17 1.489048265986554e-10  0.
-2.0560551028874727e-16 1.4890463538338089e-10  0.
-7.363302270316285e-16 1.4890392022167738e-10  0.
-2.3766805754186714e-15 1.4890153019958732e-10  0.
-6.9730937576919145e-15 1.488942816726569e-10  0.
-1.8715310737424606e-14 1.4887419796806272e-10  0.
-4.6213003100348025e-14 1.4882306473936396e-10  0.
-1.0551643671718596e-13 1.4870281800189765e-10  0.
-2.2377486612603656e-13 1.4844042848788536e-10  0.
-4.4252659748622613e-13 1.479069975274035e-10  0.
-8.188399783134371e-13 1.4689306243186846e-10  0.
-1.4219735612251152e-12 1.4508550711154723e-10  0.
-2.32355301250101e-12 1.420550969434923e-10  0.
-3.5806748369628907e-12 1.3726587696981615e-10  0.
-5.2140930879761614e-12 1.3011648174403417e-10  0.
-7.186862191339761e-12 1.2001760562304482e-10  0.
-9.394498392966223e-12 1.065016599891955e-10  0.
-1.1712914407688141e-11 8.941410614714915e-11  0.
-1.4840311911129363e-11 7.012482558299016e-11  0.
-3.222521049324569e-11 7.114471377379024e-11  0.
0.0 5.055761436973059e-10  0.
-1.1561744426503985e-16 5.055760696517068e-10  0.
-5.055508907474269e-16 5.055756634179063e-10  0.
-1.9031149834336778e-15 5.055740498496244e-10  0.
-6.433126637269488e-15 5.055683448388889e-10  0.
-1.9682854397333472e-14 5.055501414783483e-10  0.
-5.485918666062547e-14 5.054973636325535e-10  0.
-1.4010755448371064e-13 5.053574612094587e-10  0.
-3.296456813966243e-13 5.050164993056071e-10  0.
-7.179138019881861e-13 5.042486644392323e-10  0.
-1.4533503765516671e-12 5.026437859329485e-10  0.
-2.7450616879230017e-12 4.995182151425867e-10  0.
-4.853263310292487e-12 4.93826748282911e-10  0.
-8.05472621262175e-12 4.841074606509743e-10  0.
-1.2579959959343423e-11 4.685011355054684e-10  0.
-1.8528870362751537e-11 4.448849142355272e-10  0.
-2.578544502357639e-11 4.1114059434174373e-10  0.
-3.3976817382983467e-11 3.655568255995287e-10  0.
-4.276742293636266e-11 3.075849172247721e-10  0.
-5.62512404592248e-11 2.43503798282572e-10  0.
-1.400119126910993e-10 2.5651867307858894e-10  0.
0.0 2.909826645209098e-09  0.
-4.527799708070337e-16 2.9098263806322713e-09  0.
-2.084772148507501e-15 2.9098248628925633e-09  0.
-8.267619240523902e-15 2.909818503937285e-09  0.
-2.9327334934433674e-14 2.909794853006046e-09  0.
-9.374218871850256e-14 2.9097158053614572e-09  0.
-2.717375229881925e-13 2.9094768150889527e-09  0.
-7.187250250981376e-13 2.908819093446544e-09  0.
-1.7442704545744542e-12 2.9071617795889617e-09  0.
-3.9040000171445544e-12 2.9033178649539212e-09  0.
-8.095047422302632e-12 2.8950724212337374e-09  0.
-1.5613107631508695e-11 2.8786452436498684e-09  0.
-2.8109881947997624e-11 2.848135124902545e-09  0.
-4.7389419612743136e-11 2.7951337747501803e-09  0.
-7.5013211915498e-11 2.708767334645822e-09  0.
-1.1175191916787098e-10 2.576421986572122e-09  0.
-1.5701250340856478e-10 2.3853040843446653e-09  0.
-2.0854536228815803e-10 2.1248772907593054e-09  0.
-2.643412018676203e-10 1.791794454875283e-09  0.
-3.5036583042883037e-10 1.4245504730070497e-09  0.
-8.644630978674197e-10 1.5195613811638963e-09  0.
0.0 1.4904052663468717e-08  0.
-1.5838992309322388e-15 1.4904051796846588e-08  0.
-7.65625829601296e-15 1.4904046611569154e-08  0.
-3.189769414013107e-14 1.490402376720131e-08  0.
-1.1847276269449004e-13 1.4903934636100367e-08  0.
-3.949004394768513e-13 1.4903623358563745e-08  0.
-1.1887100839795782e-12 1.4902644153418257e-08  0.
-3.2514253225658726e-12 1.4899852024639962e-08  0.
-8.128557149741998e-12 1.489259190320376e-08  0.
-1.8673453637177728e-11 1.487528103368148e-08  0.
-3.9610038047199574e-11 1.4837239783287445e-08  0.
-7.791722665557807e-11 1.4759843350052185e-08  0.
-1.426840718186615e-10 1.4613466786227881e-08  0.
-2.4406548152830566e-10 1.4355203408883202e-08  0.
-3.9113132126881907e-10 1.3928752867954413e-08  0.
-5.887894278377374e-10 1.3267917823486464e-08  0.
-8.345043462575839e-10 1.2304630384932231e-08  0.
-1.1166934306450164e-09 1.0982066204691224e-08  0.
-1.4267854278829773e-09 9.283716657087607e-09  0.
-1.9179399970118304e-09 7.435510722149919e-09  0.
-4.599561963456094e-09 8.020075139531472e-09  0.
0.0 6.593990106408212e-08  0.
-5.0134551694437025e-15 6.593989850074257e-08  0.
-2.5360688090506543e-14 6.593988254947496e-08  0.
-1.1065769719375811e-13 6.593980891793581e-08  0.
-4.2916666908612863e-13 6.593950854911743e-08  0.
-1.4879896115737178e-12 6.593841587875309e-08  0.
-4.6398892905678505e-12 6.593485028397171e-08  0.
-1.3093064894231973e-11 6.59243480432437e-08  0.
-3.363811057283518e-11 6.589625285501203e-08  0.
-7.912618976383876e-11 6.58275914394172e-08  0.
-1.7129588842502657e-10 6.567347180684314e-08  0.
-3.4286385494031034e-10 6.535418990826569e-08  0.
-6.371646225263308e-10 6.474105215221602e-08  0.
-1.1034240993509994e-09 6.364532335579631e-08  0.
-1.7865892702087103e-09 6.181671290350902e-08  0.
-2.712447521059728e-09 5.895813935220891e-08  0.
-3.8717128666864185e-09 5.476131215559267e-08  0.
-5.213276892960604e-09 4.896759416904682e-08  0.
-6.7130166255819805e-09 4.1518922880585204e-08  0.
-9.160827251462398e-09 3.358340468943973e-08  0.
-2.1226819997857858e-08 3.672043196418938e-08  0.
0.0 2.4860395391859096e-07  0.
-1.4455250516862453e-14 2.4860394703636944e-07  0.
-7.625144061493945e-14 2.48603902631384e-07  0.
-3.4723101508638e-13 2.4860368868813833e-07  0.
-1.4017316478225659e-12 2.486027794609881e-07  0.
-5.039738502285671e-12 2.485993461339512e-07  0.
-1.6227571390724558e-11 2.4858776675471967e-07  0.
-4.7085485374850414e-11 2.485526724629428e-07  0.
-1.238831804078e-10 2.4845648605784213e-07  0.
-2.9731656842271633e-10 2.4821660420990546e-07  0.
-6.544715218134596e-10 2.476691166035672e-07  0.
-1.3280250574849455e-09 2.465195656586416e-07  0.
-2.4953103591128117e-09 2.4428845645081056e-07  0.
-4.359306542677717e-09 2.4026851392510077e-07  0.
-7.106755630558162e-09 2.3351845452124332e-07  0.
-1.084725583020744e-08 2.22918685703686e-07  0.
-1.554902050109216e-08 2.0730643285631947e-07  0.
-2.1021598250998493e-08 1.8571718470230024e-07  0.
-2.7263186968613565e-08 1.580678312333932e-07  0.
-3.780680446820792e-08 1.2963232424150573e-07  0.
-8.400650540466999e-08 1.4416146090734616e-07  0.
0.0 7.861692460710098e-07  0.
-3.81612899547301e-14 7.861692292206708e-07  0.
-2.091532807340156e-13 7.861691168459774e-07  0.
-9.903817554575528e-13 7.86168553906307e-07  0.
-4.1475709827667744e-12 7.861660706098567e-07  0.
-1.541293329546467e-11 7.861563715806233e-07  0.
-5.1069448517447164e-11 7.861226911911326e-07  0.
-1.517832151513405e-10 7.860181116846132e-07  0.
-4.0723392209614587e-10 7.857258869596568e-07  0.
-9.925558617400064e-10 7.849862913169166e-07  0.
-2.2107010127673695e-09 7.832803331701346e-07  0.
-4.5241712970228915e-09 7.79673480623288e-07  0.
-8.549632372242332e-09 7.726465903397954e-07  0.
-1.4987435153166923e-08 7.599711395897524e-07  0.
-2.44728333974289e-08 7.387067331454019e-07  0.
-3.736635699939066e-08 7.053953394140814e-07  0.
-5.354907722046371e-08 6.564994811436942e-07  0.
-7.24343650357778e-08 5.892179044771148e-07  0.
-9.450589378781233e-08 5.041662282858836e-07  0.
-1.332769441654852e-07 4.218772522972632e-07  0.
-2.812881402367609e-07 4.791786355904077e-07  0.
0.0 2.0466867982371243e-06  0.
-9.257440893241619e-14 2.0466867605315984e-06  0.
-5.252749835173626e-13 2.046686501420174e-06  0.
-2.5769730075473427e-12 2.0466851568936797e-06  0.
-1.1157757638083353e-11 2.0466790225606496e-06  0.
-4.271639343356278e-11 2.046654327272353e-06  0.
-1.4513873977013677e-10 2.046566358801801e-06  0.
-4.4009220439728785e-10 2.04628771993637e-06  0.
-1.1985588969072396e-09 2.0454980255350886e-06  0.
-2.951112960947607e-09 2.0434821498985554e-06  0.
-6.61156208357589e-09 2.0388163307074873e-06  0.
-1.3558368705984385e-08 2.0289633001582565e-06  0.
-2.5592728822657393e-08 2.009867433435314e-06  0.
-4.469547527857591e-08 1.9757157149324965e-06  0.
-7.256871711579673e-08 1.919061228617094e-06  0.
-1.1004502167800852e-07 1.8314580657162388e-06  0.
-1.5661359252230627e-07 1.7046788791484206e-06  0.
-2.1085014501075608e-07 1.5330783081234858e-06  0.
-2.7627622543322045e-07 1.322663748383923e-06  0.
-3.962743765484141e-07 1.1411936272563988e-06  0.
-7.849038052006279e-07 1.3303459085863752e-06  0.
0.0 4.302107426382649e-06  0.
-2.0680638860351802e-13 4.302107349284519e-06  0.
-1.210551655758232e-12 4.302106804963141e-06  0.
-6.131043557582767e-12 4.302103889844257e-06  0.
-2.7354032308519065e-11 4.3020901817960345e-06  0.
-1.075407511888899e-10 4.302033489764135e-06  0.
-3.734367996227527e-10 4.3018270500425995e-06  0.
-1.1507694719684223e-09 4.301162730819446e-06  0.
-3.1665493711810393e-09 4.299262803085776e-06  0.
-7.833488709374906e-09 4.294401410110363e-06  0.
-1.7540612154923636e-08 4.28319649779441e-06  0.
-3.578554113427799e-08 4.259775404601573e-06  0.
-6.692993558109443e-08 4.215094763223818e-06  0.
-1.1543836357382819e-07 4.136820639557129e-06  0.
-1.8464708933841698e-07 4.010150584909216e-06  0.
-2.7546985444852456e-07 3.819688890296884e-06  0.
-3.857943655991655e-07 3.5523759589022475e-06  0.
-5.132525749883564e-07 3.2035649740596763e-06  0.
-6.738841630073572e-07 2.8033438818258446e-06  0.
-9.81517395339098e-07 2.5368453908653108e-06  0.
-1.7975834463306607e-06 3.0475397722593267e-06  0.
0.0 7.224028924452365e-06  0.
-4.2641124510806937e-13 7.224028780297425e-06  0.
-2.5662336038922775e-12 7.2240277376635604e-06  0.
-1.3371051003207059e-11 7.224021994481504e-06  0.
-6.127055943694136e-11 7.22399425164857e-06  0.
-2.4660173705998163e-10 7.223876753119849e-06  0.
-8.724274510304526e-10 7.223440759086012e-06  0.
-2.7223575402163564e-09 7.222020590217822e-06  0.
-7.535355602297276e-09 7.217941159641284e-06  0.
-1.862850729916835e-08 7.207541880919096e-06  0.
-4.1425508482774235e-08 7.18385214467256e-06  0.
-8.345526612366165e-08 7.135291835273942e-06  0.
-1.5335845202550897e-07 7.045111168509555e-06  0.
-2.587676503116005e-07 6.892400113139008e-06  0.
-4.0358064217718316e-07 6.655071118892546e-06  0.
-5.858443788864563e-07 6.3145071275114465e-06  0.
-7.986389427704299e-07 5.861688599761808e-06  0.
-1.0410429998516678e-06 5.3120033375827695e-06  0.
-1.3663723212777337e-06 4.769982768744198e-06  0.
-2.008929928965619e-06 4.6406686840883385e-06  0.
-3.3464643007600144e-06 5.734188935930824e-06  0.
0.0 9.894440478860267e-06  0.
-8.151276719234722e-13 9.89444023098091e-06  0.
-5.027595212060575e-12 9.89443839931285e-06  0.
-2.6861554755724435e-11 9.894428055753863e-06  0.
-1.2603159755813558e-10 9.89437688896622e-06  0.
-5.178097988722523e-10 9.89415560765288e-06  0.
-1.8610862428722375e-09 9.893321243820865e-06  0.
-5.862070782219815e-09 9.890578795371972e-06  0.
-1.6257166256052833e-08 9.882698614236647e-06  0.
-3.996160270159236e-08 9.862795216209157e-06  0.
-8.771723079960366e-08 9.818305140108334e-06  0.
-1.732515974645653e-07 9.729669386847692e-06  0.
-3.1026462492150627e-07 9.571168483498754e-06  0.
-5.075370690741888e-07 9.31504960129332e-06  0.
-7.642385158916853e-07 8.938656737750607e-06  0.
-1.0682223109339752e-06 8.433051717879191e-06  0.
-1.4033298411370484e-06 7.814272519788945e-06  0.
-1.7807411456237197e-06 7.158258354959751e-06  0.
-2.333473087698121e-06 6.731116450188432e-06  0.
-3.4146977015150953e-06 7.202850946308875e-06  0.
-5.110716589164472e-06 8.987212898019081e-06  0.
0.0 1.1975776352638175e-05  0.
-1.4530854389537318e-12 1.1975775957718223e-05  0.
-9.158808817359965e-12 1.1975772983949546e-05  0.
-5.0029811587235455e-11 1.1975755819879333e-05  0.
-2.396816705634077e-10 1.197566912138133e-05  0.
-1.0027105035950826e-09 1.1975287249523802e-05  0.
-3.6526505869311725e-09 1.1973827525083026e-05  0.
-1.1584008503859553e-08 1.1968997752656348e-05  0.
-3.2083378393422126e-08 1.1955159230989905e-05  0.
-7.807525122354371e-08 1.1920689027449127e-05  0.
-1.682415186072531e-07 1.1845569952647187e-05  0.
-3.2368868469840757e-07 1.1701319432151891e-05  0.
-5.608080640214756e-07 1.1455453606764393e-05  0.
-8.826718852320684e-07 1.1080674707756054e-05  0.
-1.273514535892862e-06 1.0566438286148973e-05  0.
-1.703162257900584e-06 9.929277132826805e-06  0.
-2.148717104651713e-06 9.23176064051637e-06  0.
-2.66319659126403e-06 8.656852105144245e-06  0.
-3.4936235792377698e-06 8.701207504435413e-06  0.
-4.970158236640239e-06 1.0096094168345898e-05  0.
-6.707687169836571e-06 1.2204951239565768e-05  0.
0.0 1.4239959996389225e-05  0.
-2.4240715054312972e-12 1.423995941366474e-05  0.
-1.5572374729534298e-11 1.4239954952375838e-05  0.
-8.673453744979023e-11 1.4239928704208746e-05  0.
-4.232186382332719e-10 1.4239793664632757e-05  0.
-1.7988346959232314e-09 1.4239189240425593e-05  0.
-6.62858884788599e-09 1.4236851418545898e-05  0.
-2.1126181080375368e-08 1.42290785901487e-05  0.
-5.8297143087393695e-08 1.4206919514102839e-05  0.
-1.3997293074383537e-07 1.4152680324180201e-05  0.
-2.9476321430534303e-07 1.4038093443181573e-05  0.
-5.495099310760925e-07 1.3827581925286058e-05  0.
-9.159311017968955e-07 1.3488542926835436e-05  0.
-1.3800836673648136e-06 1.3005493006201169e-05  0.
-1.9024412408302343e-06 1.2390925238841582e-05  0.
-2.437933800383128e-06 1.1692888330658832e-05  0.
-2.9853652952289397e-06 1.1027232423545657e-05  0.
-3.6876286101984195e-06 1.0711216792401354e-05  0.
-4.873870750255289e-06 1.1403672681472969e-05  0.
-6.578828139294767e-06 1.3368397272857753e-05  0.
-8.195862499510081e-06 1.5082891458852584e-05  0.
0.0 1.6863712936951954e-05  0.
-3.788019358150268e-12 1.6863712145138715e-05  0.
-2.4738699694272177e-11 1.6863705994777912e-05  0.
-1.4013100291053468e-10 1.6863669199601943e-05  0.
-6.947384330372824e-10 1.686347684436645e-05  0.
-2.993739631863744e-09 1.686260374326399e-05  0.
-1.1140046307397025e-08 1.685919236558506e-05  0.
-3.5628634449411776e-08 1.6847809804921935e-05  0.
-9.779657475435869e-08 1.6815569010033394e-05  0.
-2.3111358545536268e-07 1.673821636023612e-05  0.
-4.739515351075961e-07 1.658053740017335e-05  0.
-8.527649993032182e-07 1.63052533145625e-05  0.
-1.363025226099141e-06 1.5889153946653097e-05  0.
-1.963915830489211e-06 1.533711474811293e-05  0.
-2.597456777035648e-06 1.4683336423584642e-05  0.
-3.2300926021817058e-06 1.3997718408946972e-05  0.
-3.9386862468018145e-06 1.3455857726731655e-05  0.
-4.976448564714669e-06 1.3517221511240068e-05  0.
-6.597793350773021e-06 1.4746506164959782e-05  0.
-8.36381934725089e-06 1.6490966824897895e-05  0.
-9.825674618296462e-06 1.7546145015544052e-05  0.
0.0 1.9151548937001086e-05  0.
-5.556150272882955e-12 1.9151547946523916e-05  0.
-3.679849544294277e-11 1.9151540158089776e-05  0.
-2.1145574221512703e-10 1.915149289914333e-05  0.
-1.0626678397910057e-09 1.915124246619617e-05  0.
-4.632994758609281e-09 1.915009219083072e-05  0.
-1.7380794101616143e-08 1.9145559740774842e-05  0.
-5.571565507207187e-08 1.913039998851902e-05  0.
-1.5196732775169986e-07 1.9087772914415886e-05  0.
-3.5293531987409295e-07 1.8987674415815054e-05  0.
-7.030740238867772e-07 1.8791487031018115e-05  0.
-1.2177043503487575e-06 1.846784510160518e-05  0.
-1.8653795827761685e-06 1.8010453238738003e-05  0.
-2.58033527338924e-06 1.744252733219102e-05  0.
-3.3140279189133736e-06 1.6805039740169203e-05  0.
-4.0939279560840605e-06 1.6177814321168938e-05  0.
-5.097759560551777e-06 1.5832198177416108e-05  0.
-6.613642132392576e-06 1.6327312520486525e-05  0.
-8.541769372629521e-06 1.780137682215785e-05  0.
-1.0204070953363144e-05 1.8952309462271913e-05  0.
-1.1477705718338946e-05 1.990323025015801e-05  0.
0.0 2.1480546720635453e-05  0.
-7.666418939777785e-12 2.148054558518731e-05  0.
-5.1372980023771905e-11 2.1480536565119173e-05  0.
-2.987648772537972e-10 2.1480481185056214e-05  0.
-1.5185664758161849e-09 2.148018438346941e-05  0.
-6.685531507357926e-09 2.1478807620093672e-05  0.
-2.524963852472152e-08 2.1473344968852775e-05  0.
-8.105916268196891e-08 2.1455044553839852e-05  0.
-2.1963061994228038e-07 2.140396648939678e-05  0.
-5.011287379938762e-07 2.128657790885165e-05  0.
-9.688060252050083e-07 2.106572039966583e-05  0.
-1.6137799030781523e-06 2.0722814689009656e-05  0.
-2.3756866857060094e-06 2.026966712158329e-05  0.
-3.1861051169529152e-06 1.973345049042033e-05  0.
-4.044658618141315e-06 1.9147001240906986e-05  0.
-5.0744743539644265e-06 1.8623160291157075e-05  0.
-6.480412398206161e-06 1.8554901141336108e-05  0.
-8.377985234385732e-06 1.9429877976759965e-05  0.
-1.0218519804078383e-05 2.0707734805612567e-05  0.
-1.1605441450867143e-05 2.1366384213089253e-05  0.
-1.2901433626078701e-05 2.262527301021999e-05  0.
0.0 2.3970975770798454e-05  0.
-9.958986199237265e-12 2.3970974595425087e-05  0.
-6.73706061131153e-11 2.3970965179777382e-05  0.
-3.956181776262401e-10 2.3970906811947332e-05  0.
-2.029412005553581e-09 2.3970591089638992e-05  0.
-9.005426692213136e-09 2.3969114651831097e-05  0.
-3.419454909616181e-08 2.396322308169858e-05  0.
-1.0987524055428345e-07 2.39434622282565e-05  0.
-2.958396851157666e-07 2.3888678723562347e-05  0.
-6.638301481636601e-07 2.3765263844879074e-05  0.
-1.2467235430120683e-06 2.354211751011887e-05  0.
-2.0002923826547974e-06 2.321627505569474e-05  0.
-2.847013101874016e-06 2.281167422412738e-05  0.
-3.757056852299313e-06 2.2341722327917096e-05  0.
-4.794898355611292e-06 2.183104480709236e-05  0.
-6.135558171400475e-06 2.1470420613236104e-05  0.
-7.866654439637435e-06 2.1717064794619345e-05  0.
-9.73365689845633e-06 2.2728828592494906e-05  0.
-1.1239389747764158e-05 2.346563469829485e-05  0.
-1.2444054918518504e-05 2.3862344993321504e-05  0.
-1.385073947203265e-05 2.4994069196978332e-05  0.
0.0 2.626314290901948e-05  0.
-1.2193995733746844e-11 2.6263141831845e-05  0.
-8.309398180740898e-11 2.626313314790266e-05  0.
-4.916083058553267e-10 2.626307892149151e-05  0.
-2.5397350091597297e-09 2.626278353419749e-05  0.
-1.1338777157924121e-08 2.6261393690937135e-05  0.
-4.323137995971754e-08 2.6255823978992484e-05  0.
-1.3898421031837477e-07 2.6237129848412126e-05  0.
-3.7217325742297886e-07 2.618560450586969e-05  0.
-8.230503162237652e-07 2.6071515278025616e-05  0.
-1.5063069762246217e-06 2.587248797172732e-05  0.
-2.33730615702191e-06 2.559817587615229e-05  0.
-3.2430912502592752e-06 2.5275144621684282e-05  0.
-4.274846067982156e-06 2.4896064317650703e-05  0.
-5.5305783763936505e-06 2.448887036955371e-05  0.
-7.102379830374505e-06 2.432470016317922e-05  0.
-8.891117800436233e-06 2.4774425361101658e-05  0.
-1.0424096443167285e-05 2.5539607508734745e-05  0.
-1.1781251060871617e-05 2.5844878829714387e-05  0.
-1.3137074894851503e-05 2.6298946753807867e-05  0.
-1.432995378088797e-05 2.6817172253940445e-05  0.
0.0 2.8702388188583766e-05  0.
-1.408428343732489e-11 2.870238736067345e-05  0.
-9.647309987798262e-11 2.8702380655641116e-05  0.
-5.737967371537491e-10 2.870233856578409e-05  0.
-2.9792809705921274e-09 2.8702108127513586e-05  0.
-1.3358802801646519e-08 2.8701019071966237e-05  0.
-5.1080930216607246e-08 2.869664129547988e-05  0.
-1.6426577324330507e-07 2.8681940748451844e-05  0.
-4.3802828410291374e-07 2.8641599120529337e-05  0.
-9.578382644012993e-07 2.8553446878213544e-05  0.
-1.7174434820876976e-06 2.840399601802714e-05  0.
-2.595134498618063e-06 2.8207723261383882e-05  0.
-3.5414147121498106e-06 2.7985878338744568e-05  0.
-4.7068699875313246e-06 2.771868061426769e-05  0.
-6.159721910865844e-06 2.743993078290519e-05  0.
-7.777796678038833e-06 2.7426357010107818e-05  0.
-9.42649512646313e-06 2.785775440252365e-05  0.
-1.0824893940983917e-05 2.8228248299087184e-05  0.
-1.221543320674343e-05 2.8368396905138723e-05  0.
-1.3665934709511804e-05 2.8838458423182756e-05  0.
-1.4789936613141574e-05 2.9015598303813356e-05  0.
0.0 3.105914120306874e-05  0.
-1.5352837403914258e-11 3.1059140752338396e-05  0.
-1.0548785984394955e-10 3.105913709213349e-05  0.
-6.294034545632927e-10 3.105911404436451e-05  0.
-3.2778361998770127e-09 3.1058987482130144e-05  0.
-1.4735508406971534e-08 3.1058387778263825e-05  0.
-5.6442306504002386e-08 3.105597269992782e-05  0.
-1.8153050721581761e-07 3.104786079131253e-05  0.
-4.827883021726178e-07 3.102565990151098e-05  0.
-1.0482172766110688e-06 3.09775470552766e-05  0.
-1.854872419125907e-06 3.089746479396135e-05  0.
-2.755269064916029e-06 3.0795631234301204e-05  0.
-3.7266355138785985e-06 3.068343418402885e-05  0.
-4.999561876161136e-06 3.054523976934623e-05  0.
-6.577190390547371e-06 3.0406231871892336e-05  0.
-8.124127828125801e-06 3.0434959324544286e-05  0.
-9.654802391015643e-06 3.0678126080526356e-05  0.
-1.1167779895862575e-05 3.082450587423007e-05  0.
-1.251862696789774e-05 3.087552703089257e-05  0.
-1.3882315681969731e-05 3.1071155281727887e-05  0.
-1.5105519622374333e-05 3.126947973791564e-05  0.
0.0 3.344999999999997e-05  0.
-1.580002157120853e-11 3.344999999999997e-05  0.
-1.0867204428591817e-10 3.344999999999997e-05  0.
-6.490851313459114e-10 3.344999999999997e-05  0.
-3.383715358798772e-09 3.344999999999997e-05  0.
-1.5224568308504253e-08 3.344999999999997e-05  0.
-5.8348993453458535e-08 3.344999999999997e-05  0.
-1.8767005959776625e-07 3.344999999999997e-05  0.
-4.986680240954816e-07 3.344999999999997e-05  0.
-1.0800604108668307e-06 3.344999999999997e-05  0.
-1.9025403724980968e-06 3.344999999999997e-05  0.
-2.8094265247586796e-06 3.344999999999997e-05  0.
-3.789529289648817e-06 3.344999999999997e-05  0.
-5.103581158889022e-06 3.344999999999997e-05  0.
-6.721620002963737e-06 3.344999999999997e-05  0.
-8.225077927875178e-06 3.344999999999997e-05  0.
-9.725028967724555e-06 3.344999999999997e-05  0.
-1.1304094685902824e-05 3.344999999999997e-05  0.
-1.2603144358346889e-05 3.344999999999997e-05  0.
-1.3941449761504902e-05 3.344999999999997e-05  0.
-1.512773963169867e-05 3.344999999999997e-05  0.
</DataArray>
<DataArray type="Float64" Name="sigma_xx" NumberOfComponents="1" format="ascii" >
1997.3589201027758 
1997.3575756893065 
1997.3510792525844 
1997.3289989705372 
1997.2617358310345 
1997.0747038189347 
1996.5968066304458 
1995.4684796985584 
1992.9947467911543 
1987.9365684150046 
1978.252701617666 
1960.834027997515 
1931.3072954441063 
1884.0123358510036 
1812.26027168857 
1708.9433633710178 
1567.4641690166518 
1382.445294056955 
1144.2137416939331 
744.2564030402107 
478.5514857830184 
7730.595304711316 
7730.591831578424 
7730.5744563938 
7730.512794190678 
7730.317016002573 
7729.751549534478 
7728.2558930913365 
7724.612493764658 
7716.396494023001 
7699.166183405821 
7665.422673322483 
7603.487403490259 
7496.596412012721 
7322.64106200475 
7055.023530463942 
6664.970835981718 
6125.258391154184 
5413.537394055587 
4494.940467297813 
3042.0993136798234 
2106.575751137373 
40316.14536940119 
40316.13221184281 
40316.06408496089 
40315.81206862532 
40314.98059889892 
40312.49609738884 
40305.72685987942 
40288.809026484116 
40249.81115975933 
40166.483688600085 
40000.70359514994 
39692.37592703344 
39154.378866185216 
38270.871165319004 
36901.50734942387 
34893.44668648196 
32100.832425385735 
28400.985299978354 
23593.411030317635 
15975.39650181611 
11074.640037816991 
176491.87855959253 
176491.83370938565 
176491.59406943334 
176490.67388349478 
176487.53278615698 
176477.86482166132 
176450.85148498823 
176381.90152982617 
176220.1918500655 
175869.82904071172 
175165.14354801163 
173843.58983011654 
171523.4742658916 
167696.82572737307 
161748.51689529087 
153009.29236103373 
140839.4073011104 
124683.21997194938 
103522.97955872888 
69577.58084609741 
47653.96136435227 
654460.3655972645 
654460.2266775832 
654459.46205942 
654456.4223520008 
654445.7178330075 
654411.8895087406 
654315.3069885536 
654064.5573382739 
653468.891745673 
652166.6440604837 
649532.5663251475 
644578.9382777202 
635878.9900764131 
621551.3171296759 
599343.10091507 
566833.4843455744 
521728.32942074514 
461951.7499548918 
383068.9470649183 
254937.39796257624 
171882.2647598816 
2017544.51785705 
2017544.1245927843 
2017541.899340502 
2017532.7660690183 
2017499.6854815546 
2017392.718332061 
2017081.910521892 
2016265.0016661366 
2014310.0737262436 
2010024.078047864 
2001365.3631902903 
1985159.2972531854 
1956916.3114756919 
1910869.2659950764 
1840321.6844637464 
1738319.709515878 
1598459.8168622572 
1414555.046940535 
1170234.3517646203 
768368.116721593 
507053.5387576178 
5039889.5107740965 
5039888.489481941 
5039882.5612849565 
5039857.512240063 
5039764.479334021 
5039457.7346539665 
5038554.445174246 
5036163.0852616085 
5030433.264730737 
5017926.246683941 
4992901.767589846 
4946735.138192406 
4867763.796530928 
4741826.4741938505 
4553585.124533245 
4288386.269393917 
3933718.0893027806 
3475525.403984785 
2863145.785831724 
1843763.1083935304 
1179670.7855609537 
9863318.01668616 
9863315.577800734 
9863301.08805772 
9863238.239033094 
9862999.59471463 
9862199.948486157 
9859823.383262884 
9853519.240812195 
9838493.715780541 
9806100.945851078 
9742529.60964895 
9628265.309469007 
9439041.998094242 
9148628.924754053 
8732962.3748087 
8174143.654560493 
7460590.688128291 
6568963.169838136 
5369016.066191735 
3353598.9483082513 
2043112.8637648607 
14534704.111682545 
14534698.743724884 
14534666.176044343 
14534521.576061366 
14533961.818503147 
14532061.609314507 
14526384.095014058 
14511371.376287103 
14476014.00377216 
14401363.700733408 
14259184.122255854 
14013464.215085998 
13625961.512877148 
13065239.756761495 
12316239.944192076 
11385078.372157801 
10288578.607250761 
8994306.934948139 
7226414.822302559 
4270077.44617067 
2374853.146383986 
15702399.85686282 
15702388.923091672 
15702321.325817727 
15702014.891212288 
15700808.539390178 
15696670.483648486 
15684281.796113688 
15651776.603391869 
15576606.680210691 
15422478.946524892 
15140708.033152182 
14679109.429841235 
13998740.457660912 
13093363.01611058 
12002560.03274914 
10805629.658133179 
9575897.141160792 
8238495.60900558 
6317174.059467553 
3281212.0649223127 
1445683.263455642 
13336979.880151851 
13336959.156780664 
13336828.848411076 
13336227.059711844 
13333822.647783613 
13325505.096006284 
13300615.045080138 
13236055.869083365 
13090289.222965823 
12802357.150289735 
12302662.043747991 
11538431.528063811 
10507543.74637451 
9284035.587712012 
8014521.369238422 
6869794.010182326 
5922121.1879731035 
4915530.372551866 
3201689.628922744 
1035807.3307061456 
4238.961029409664 
12193921.962746099 
12193885.263651796 
12193650.978214845 
12192550.956903934 
12188098.143620046 
12172588.133625703 
12126280.505185468 
12007896.48574742 
11748263.941123012 
11258160.049229018 
10460147.726468509 
9340151.54591022 
7992475.334481219 
6623423.939587906 
5484858.924589178 
4739611.443882788 
4245776.547938396 
3366561.126607887 
1531335.9822930254 
-1098.917594022536 
-348238.0754682021 
13719825.345441002 
13719764.508828465 
13719370.903399562 
13717495.770811997 
13709818.700210871 
13682930.500886882 
13602949.112221286 
13401905.830304405 
12975689.182865562 
12213341.93198844 
11064139.009856109 
9614542.599784145 
8111101.540419521 
6881226.570038717 
6161946.8619964365 
5872827.790933237 
5435792.264792716 
3936334.6195755512 
1524945.1980471415 
36824.15767966806 
-176942.33139639843 
13786339.178331006 
13786244.594576627 
13785625.485045522 
13782638.610458892 
13770290.010861797 
13726852.391918108 
13598243.996872168 
13280886.764781788 
12633078.111185275 
11544573.970346387 
10048143.775164321 
8393340.201056812 
6980377.976176262 
6129277.7604368655 
5829432.647582594 
5560539.835005551 
4409139.30286953 
1942241.740876785 
-318274.77059850644 
-746895.1219028546 
-459050.75353901065 
12956919.025356196 
12956780.817899965 
12955867.079364553 
12951410.878779078 
12932833.926184326 
12867262.748164622 
12674099.369819328 
12206399.179435108 
11289465.459843589 
9853575.503672594 
8083741.367537826 
6417232.303056197 
5307028.938373424 
4843454.163830994 
4569904.859031756 
3669997.932806443 
1466636.2865680794 
-1149460.8402356156 
-1926174.177114514 
-673846.3662953853 
221887.39765506063 
13526868.778905472 
13526678.719585635 
13525411.595070291 
13519175.80888364 
13492999.560216116 
13400358.371419353 
13128820.058067817 
12483383.442319814 
11268948.3470621 
9508312.602511667 
7600913.405037051 
6124251.777482761 
5374578.756958307 
5029663.563797526 
4253616.750519613 
2466774.11396975 
-28088.366831932217 
-1425510.2547049057 
-641097.5282150643 
290464.35936069035 
368031.07457778254 
13423243.533326287 
13422997.263748549 
13421344.178386347 
13413149.127717346 
13378555.640908586 
13255877.139785098 
12897965.67031068 
12061512.321404804 
10548655.654346965 
8525322.198307281 
6640292.278504789 
5488735.5688261585 
4950166.178261047 
4314777.518466351 
2829768.802949212 
630038.8120771637 
-897925.8915407013 
-790125.2818142743 
222322.90616205655 
-94297.9623934243 
-949560.9576541518 
13279200.390927933 
13278899.421989523 
13276868.510483649 
13266743.21358464 
13223817.19633668 
13071363.187943496 
12628331.508659475 
11607738.485462325 
9825577.888510428 
7621799.660897352 
5889579.3337881155 
5090435.627138506 
4484661.893087729 
3249941.5015165955 
1418254.2024669035 
-332947.812952347 
-574252.7311870635 
-22903.592200307132 
-14648.445067055567 
-101130.52854758798 
-135700.7754212626 
13460863.010967411 
13460515.858614637 
13458164.526231315 
13446394.460455365 
13396342.886604218 
13218402.319416398 
12702851.703766523 
11528163.277268574 
9533308.215846293 
7227857.098220028 
5705681.643743964 
5193571.45437928 
4291144.286772654 
2413982.72219177 
868215.4162490325 
46156.5486509467 
119879.35677555668 
385025.74359774764 
-302225.7185797259 
436.2795539176441 
833423.8789102533 
13324714.076164015 
13324335.951139066 
13321769.098023057 
13308889.24454588 
13254018.423578003 
13058830.11466736 
12494361.887450904 
11217027.885982055 
9086493.347666083 
6736377.081983757 
5390085.52561972 
5053317.54484925 
3823911.3900323715 