<?xml version="1.0"?>
<VTKFile type="UnstructuredGrid" version="0.1" byte_order="LittleEndian" compressor="vtkZLibDataCompressor">
<UnstructuredGrid>
<Piece NumberOfPoints="441" NumberOfCells="400">
<PointData>
<DataArray type="Float64" Name="displacement" NumberOfComponents="3" format="ascii" >
0.0 2.328600352149843e-21  0.
-6.852505558394458e-26 2.3286910248022766e-21  0.
-1.1747753796030087e-26 2.3286826645639046e-21  0.
5.959248012123074e-28 2.328669685980882e-21  0.
3.2285516860305363e-28 2.3286689824937796e-21  0.
-6.5458365149792035e-28 2.3286689830129024e-21  0.
-3.386062614950072e-27 2.3286672748409742e-21  0.
-8.662385676416037e-26 2.3285894316335507e-21  0.
-1.1457354711324145e-24 2.327781829030636e-21  0.
-2.3014117126564066e-24 2.3286795593537623e-21  0.
-2.145908524037567e-24 2.32844340427342e-21  0.
-3.653343327030675e-24 2.327437166991524e-21  0.
-9.43640991038533e-24 2.3243500503793743e-21  0.
-3.162900720966646e-23 2.3118611704504873e-21  0.
-1.1980028724027293e-22 2.2773866100623728e-21  0.
-3.3779490653146287e-22 2.21060868288546e-21  0.
-3.120919526285222e-22 1.2901995383040803e-21  0.
-3.1970022152995805e-22 1.0323478775362042e-21  0.
-4.574496826170489e-22 4.1571532568522336e-22  0.
-3.2530319026462047e-22 2.833371548041319e-23  0.
-3.2708283343176145e-22 2.861493635991462e-22  0.
0.0 1.6277920427932148e-19  0.
-2.664111336880142e-24 1.630085998392354e-19  0.
-1.6644558442161948e-26 1.63006943516362e-19  0.
2.745792810603889e-26 1.6300683771066212e-19  0.
-1.1195034745975836e-27 1.6300685974653328e-19  0.
-3.032155225894679e-26 1.6300683603782912e-19  0.
-1.6598996103116176e-25 1.6300674658772238e-19  0.
-6.911685678358766e-25 1.6300638141030082e-19  0.
-1.1376584137398206e-23 1.6299492812371174e-19  0.
-2.30214869552768e-22 1.625128958373648e-19  0.
-1.3120416839093504e-22 1.624102247357917e-19  0.
-2.647709627811724e-22 1.6232108644191335e-19  0.
-7.579128056828721e-22 1.6156251114515738e-19  0.
-1.5260639945038901e-21 1.5976947984643068e-19  0.
-3.136622857791604e-21 1.5554245878990565e-19  0.
-5.874715090193138e-21 1.454866961364815e-19  0.
-6.4005207038676685e-21 1.3235574321805273e-19  0.
-8.225150416246687e-21 1.2126900952228806e-19  0.
-1.192523472332249e-20 1.0041205448254438e-19  0.
-1.3110255396152912e-20 7.790257875615192e-20  0.
-4.083428889483165e-20 7.844048239172037e-20  0.
0.0 4.433400060621186e-18  0.
-9.351441217453293e-24 4.432149358797323e-18  0.
-9.241657350691752e-25 4.432137743541449e-18  0.
-1.429075850064767e-25 4.4321372649489546e-18  0.
-5.65403727102803e-26 4.4321371606277644e-18  0.
-1.0341144429913865e-24 4.432136177127214e-18  0.
-1.2572792204146102e-23 4.432126546087893e-18  0.
-6.645781023160387e-23 4.4321009527923455e-18  0.
-3.316914339350472e-22 4.431859776363882e-18  0.
-2.3469712643931676e-21 4.430033073483427e-18  0.
-5.819079809624092e-21 4.4196238813333325e-18  0.
-1.196545271780522e-20 4.4019308227172534e-18  0.
-2.3970518547962842e-20 4.368919932936657e-18  0.
-4.389290284757048e-20 4.305760904403063e-18  0.
-7.688411739147178e-20 4.193164919672553e-18  0.
-1.2139208556158046e-19 4.016824323235475e-18  0.
-1.7268132438013654e-19 3.7403359137855105e-18  0.
-2.376620819952007e-19 3.3630597474318774e-18  0.
-3.0991824011785454e-19 2.855867776736413e-18  0.
-3.920262086095199e-19 2.2434389649091614e-18  0.
-1.2090913099034989e-18 2.2825579845747234e-18  0.
0.0 1.0269024433919682e-16  0.
-6.117522095277423e-22 1.0269063963421662e-16  0.
-1.665834512083324e-22 1.0268970541884707e-16  0.
-1.018483510506809e-24 1.026895704797623e-16  0.
-1.3581309401408773e-24 1.0268956792332673e-16  0.
-2.2635112703762302e-23 1.026895471906129e-16  0.
-5.83341319984883e-22 1.0268907063606742e-16  0.
-3.444385447772532e-21 1.0268514873726776e-16  0.
-1.2242145035547261e-20 1.0267115581703299e-16  0.
-4.0822868676972385e-20 1.0262543774820017e-16  0.
-1.0626810383214795e-19 1.0249833362071634e-16  0.
-2.418719382601227e-19 1.0218179817164634e-16  0.
-4.971481246043828e-19 1.0151328165908825e-16  0.
-9.450366755724132e-19 1.0019986546291293e-16  0.
-1.6404168190949603e-18 9.78525785292148e-17  0.
-2.648602338843049e-18 9.393552008083711e-17  0.
-3.972929077114856e-18 8.788646454920694e-17  0.
-5.5563574964617715e-18 7.914193232238304e-17  0.
-7.279020334963904e-18 6.739554427032832e-17  0.
-9.430250698959985e-18 5.3107462070484554e-17  0.
-2.887628548795851e-17 5.4126319628591073e-17  0.
0.0 2.1107461524419893e-15  0.
-2.037547534745089e-21 2.1107424857760565e-15  0.
-1.9148924699525973e-22 2.1107427176853787e-15  0.
-8.198820957261266e-25 2.110742780954194e-15  0.
-2.78146314103908e-23 2.1107427533984056e-15  0.
-6.917011150350605e-22 2.1107420839442277e-15  0.
-9.361793999542857e-21 2.110734093394166e-15  0.
-5.669781065222234e-20 2.11067665940113e-15  0.
-1.9612084105060197e-19 2.110453427732735e-15  0.
-6.262024371653426e-19 2.1097352000327728e-15  0.
-1.6949464807619239e-18 2.10769312482668e-15  0.
-4.100920820707328e-18 2.1025469278296697e-15  0.
-8.903164677444517e-18 2.090965033677393e-15  0.
-1.7536903474442443e-17 2.067273838628762e-15  0.
-3.160497566304748e-17 2.0230736877121646e-15  0.
-5.241546503643344e-17 1.9472505255636255e-15  0.
-8.036028946690296e-17 1.8271547048826073e-15  0.
-1.1437799630063285e-16 1.6507107384190137e-15  0.
-1.5191466206034503e-16 1.4097546278602162e-15  0.
-1.9969905726631277e-16 1.1140316744536497e-15  0.
-6.088812550669882e-16 1.1389269410387558e-15  0.
0.0 3.81550239455481e-14  0.
-1.4814389051132685e-21 3.815502198630002e-14  0.
-2.919233016098515e-23 3.815502182054499e-14  0.
-6.416508380218893e-23 3.8155021794403037e-14  0.
-3.786264131454341e-22 3.8155021204956595e-14  0.
-1.1450819611831075e-20 3.8155011341144104e-14  0.
-1.0270930826900067e-19 3.815491850240051e-14  0.
-5.487806602549037e-19 3.815439027098604e-14  0.
-2.2786963323215385e-18 3.8152036611298e-14  0.
-7.874865842489455e-18 3.814343395603918e-14  0.
-2.3293860057647866e-17 3.8116625716617915e-14  0.
-6.012038568583601e-17 3.804416048891672e-14  0.
-1.379440376326052e-16 3.7870677698018945e-14  0.
-2.8424217367300186e-16 3.749862653846206e-14  0.
-5.316131036256319e-16 3.6776101374498446e-14  0.
-9.084191904751552e-16 3.5495920361017286e-14  0.
-1.4273077669307632e-15 3.341307432733064e-14  0.
-2.071090560266896e-15 3.028636330638369e-14  0.
-2.7932476062965728e-15 2.594528033819492e-14  0.
-3.72568903479222e-15 2.0568450617598618e-14  0.
-1.1314594755888432e-14 2.110919060973123e-14  0.
0.0 6.010914009320081e-13  0.
-4.9015868161041964e-21 6.01091404658906e-13  0.
-8.0134565280130485e-22 6.010914046933599e-13  0.
2.838669605103579e-22 6.010914030141563e-13  0.
-3.478147890285644e-21 6.010913997350445e-13  0.
-7.495196766570445e-20 6.010913423915052e-13  0.
-6.47153055473445e-19 6.010908260001123e-13  0.
-4.270547554365232e-18 6.010870927514186e-13  0.
-2.0838537404445265e-17 6.010671763631172e-13  0.
-8.20204030021218e-17 6.009830670806301e-13  0.
-2.672835582162148e-16 6.006917363841316e-13  0.
-7.479532183340099e-16 5.998324011692859e-13  0.
-1.82666679060317e-15 5.976293157831725e-13  0.
-3.965618710383808e-15 5.926312665783729e-13  0.
-7.72924085532575e-15 5.824748046885227e-13  0.
-1.3665604502348366e-14 5.638001675794892e-13  0.
-2.205554117474872e-14 5.324979119142417e-13  0.
-3.270073101600684e-14 4.843767923246833e-13  0.
-4.484570687834883e-14 4.163362550012579e-13  0.
-6.080819215760553e-14 3.3125275291354984e-13  0.
-1.8362687128160702e-13 3.415079210327653e-13  0.
0.0 8.166123809417409e-12  0.
-1.0129352598033779e-20 8.166123805737791e-12  0.
1.9223764625444077e-21 8.166123808006387e-12  0.
1.4771922221799278e-22 8.166123810037463e-12  0.
-2.1462115079134063e-20 8.166123796214221e-12  0.
-3.1070991418114426e-19 8.166123598827815e-12  0.
-3.1313305789507684e-18 8.166121395559503e-12  0.
-2.4912020227067653e-17 8.16610202444723e-12  0.
-1.5064879826607832e-16 8.16597149056149e-12  0.
-6.855601676424765e-16 8.165322223873879e-12  0.
-2.5301184374694763e-15 8.16274718493146e-12  0.
-7.752019967745384e-15 8.154339630009544e-12  0.
-2.0426841404535542e-14 8.130938462291648e-12  0.
-4.69978919231748e-14 8.074304049610725e-12  0.
-9.613063118790192e-14 7.953026853127554e-12  0.
-1.7644712259818777e-13 7.720518741783113e-12  0.
-2.936077696660106e-13 7.317493392576103e-12  0.
-4.456143802366154e-13 6.681327514432327e-12  0.
-6.226868083640469e-13 5.763602274420295e-12  0.
-8.599342224146106e-13 4.6048543564345505e-12  0.
-2.5765522992187704e-12 4.7734063698080824e-12  0.
0.0 9.449607788366135e-11  0.
-2.9018863491575652e-21 9.449607789460978e-11  0.
3.513999494041873e-21 9.449607789359064e-11  0.
-2.0328114860878983e-21 9.449607789066201e-11  0.
-7.470574981983309e-20 9.449607785027003e-11  0.
-1.0715896643068106e-18 9.449607722929801e-11  0.
-1.2258376905397887e-17 9.44960695633656e-11  0.
-1.134290600157518e-16 9.449599128372024e-11  0.
-8.215805377843004e-16 9.449536235432032e-11  0.
-4.551871255253343e-15 9.44914743741615e-11  0.
-1.9214103359036038e-14 9.447349909717617e-11  0.
-6.610921598668319e-14 9.440686541446232e-11  0.
-1.8946100540971496e-13 9.420287506155417e-11  0.
-4.677036422981456e-13 9.366976907277379e-11  0.
-1.0086603400394379e-12 9.24578097183341e-11  0.
-1.934027633679592e-12 9.002020885877624e-11  0.
-3.3262688561459417e-12 8.563309282156913e-11  0.
-5.184002510794293e-12 7.850102724627398e-11  0.
-7.391657034480324e-12 6.798410307274419e-11  0.
-1.0424866308248555e-11 5.458158554270022e-11  0.
-3.088845368711218e-11 5.695711781896329e-11  0.
0.0 9.178935401076616e-10  0.
2.2570491276172714e-21 9.178935401120582e-10  0.
-1.2266986012443546e-22 9.178935401129468e-10  0.
-7.535113712850537e-21 9.17893540105976e-10  0.
-2.1040613605073283e-19 9.178935400037501e-10  0.
-3.1715722766372746e-18 9.178935383899076e-10  0.
-4.019382421766108e-17 9.178935160111224e-10  0.
-4.1987896239694096e-16 9.178932598893077e-10  0.
-3.518781173347284e-15 9.178908851507828e-10  0.
-2.3069720183396488e-14 9.178735580024136e-10  0.
-1.1623594250584331e-13 9.177759931222921e-10  0.
-4.5217238360831787e-13 9.173595395923565e-10  0.
-1.4409466552203965e-12 9.159259729323787e-10  0.
-3.839208514480329e-12 9.118360633275342e-10  0.
-8.824596100395929e-12 9.01860518855232e-10  0.
-1.7733283497980786e-11 8.806828427966246e-10  0.
-3.1687102907705375e-11 8.409111690335918e-10  0.
-5.078698572617968e-11 7.741182368882034e-10  0.
-7.409155550364853e-11 6.732547756823886e-10  0.
-1.0695685907167481e-10 5.436908244575123e-10  0.
-3.120644650300302e-10 5.720921489238108e-10  0.
0.0 7.354754859813815e-09  0.
-5.432470324390807e-21 7.3547548598038984e-09  0.
-1.7254502977611906e-24 7.354754859805486e-09  0.
-2.33114194500051e-20 7.354754859796473e-09  0.
-5.091186975499512e-19 7.3547548595784e-09  0.
-8.219011067041674e-18 7.354754855855313e-09  0.
-1.1333543468540184e-16 7.3547548000187885e-09  0.
-1.3050428426393843e-15 7.354754097812425e-09  0.
-1.2284409891960687e-14 7.354746821537805e-09  0.
-9.241669162499287e-14 7.3546860342793e-09  0.
-5.435056577170005e-13 7.354286970522572e-09  0.
-2.4693695826368357e-12 7.352258895095363e-09  0.
-8.784463410755037e-12 7.34433149201399e-09  0.
-2.57226944256279e-11 7.3191935411867576e-09  0.
-6.324874144490993e-11 7.252859090454998e-09  0.
-1.3436782593483362e-10 7.102973296548006e-09  0.
-2.4984687131697135e-10 6.8079603524582834e-09  0.
-4.13387825973414e-10 6.294451120070016e-09  0.
-6.175416079922488e-10 5.499353949950218e-09  0.
-9.157933712207159e-10 4.473233710454473e-09  0.
-2.6133019202880495e-09 4.756915215671197e-09  0.
0.0 4.759505288346716e-08  0.
-5.452038669777819e-21 4.759505288347416e-08  0.
-1.504504418983447e-21 4.759505288347778e-08  0.
-5.419581904033753e-20 4.759505288345474e-08  0.
-1.106020816957893e-18 4.75950528830422e-08  0.
-1.895310410525698e-17 4.7595052875438654e-08  0.
-2.7987109002192713e-16 4.7595052753978874e-08  0.
-3.487471079910733e-15 4.75950511069399e-08  0.
-3.603838655198628e-14 4.759503244379175e-08  0.
-3.0271487273687844e-13 4.759485915181957e-08  0.
-2.0229954607886315e-12 4.759356823171626e-08  0.
-1.0558029467866791e-11 4.75860270324846e-08  0.
-4.282561183846132e-11 4.7551819508278213e-08  0.
-1.37994858804346e-10 4.743062542423904e-08  0.
-3.676922907511208e-10 4.708018840264975e-08  0.
-8.268725869434018e-10 4.6232996464532555e-08  0.
-1.609059854422331e-09 4.447624256720717e-08  0.
-2.7474980111818615e-09 4.130095618341352e-08  0.
-4.213520583332014e-09 3.626004683020683e-08  0.
-6.432538494952179e-09 2.977033297772772e-08  0.
-1.7791014193259525e-08 3.210108327952785e-08  0.
0.0 2.423876116022906e-07  0.
-2.2094917019245648e-21 2.423876116022891e-07  0.
-4.601521674204563e-22 2.423876116022824e-07  0.
-1.0633709740361424e-19 2.423876116022506e-07  0.
-2.1749261268830226e-18 2.423876116015494e-07  0.
-3.931550012862733e-17 2.423876115877117e-07  0.
-6.135357620841122e-16 2.4238761135496806e-07  0.
-8.153879121949284e-15 2.423876079994693e-07  0.
-9.085753552255526e-14 2.423875671486512e-07  0.
-8.338008914669638e-13 2.4238715426174323e-07  0.
-6.1772819157396585e-12 2.423837576675929e-07  0.
-3.6206869361429634e-11 2.4236148236794183e-07  0.
-1.6552437051883618e-10 2.422472764252772e-07  0.
-5.922474702122006e-10 2.417912619156062e-07  0.
-1.7079857023206092e-09 2.4034633930808247e-07  0.
-4.091016793432998e-09 2.365870692336988e-07  0.
-8.320036193339968e-09 2.2836652302986306e-07  0.
-1.4684054310791501e-08 2.129317628213161e-07  0.
-2.3086520693980777e-08 1.8790314689154512e-07  0.
-3.6390370746998246e-08 1.562569344758423e-07  0.
-9.613576014618525e-08 1.7166424900819242e-07  0.
0.0 9.408366702640743e-07  0.
-3.351188268331905e-21 9.408366702640727e-07  0.
-6.511792627709101e-22 9.408366702640608e-07  0.
-1.8360498122327234e-19 9.408366702640131e-07  0.
-3.921392849586172e-18 9.408366702628985e-07  0.
-7.381851137968945e-17 9.408366702404123e-07  0.
-1.2058055782765535e-15 9.408366698453594e-07  0.
-1.6889048786344895e-14 9.408366638585554e-07  0.
-2.000298101806434e-13 9.408365866188372e-07  0.
-1.971087897069443e-12 9.408357511721656e-07  0.
-1.586190334380076e-11 9.408283101742733e-07  0.
-1.0216905336480561e-10 9.407748335007213e-07  0.
-5.170156204238715e-10 9.404710308444689e-07  0.
-2.037529168541987e-09 9.391279834225948e-07  0.
-6.3371612121685465e-09 9.344910092130601e-07  0.
-1.6105338898061328e-08 9.21587886714469e-07  0.
-3.4153979753582706e-08 8.919378685208246e-07  0.
-6.204546822971084e-08 8.344538764172862e-07  0.
-9.978469602113863e-08 7.402982002770982e-07  0.
-1.6231452039127045e-07 6.273734537041532e-07  0.
-4.008060484538852e-07 7.072628936599451e-07  0.
0.0 2.6817372024881092e-06  0.
-6.18604132336128e-21 2.6817372024881037e-06  0.
-2.2496658871712565e-21 2.681737202488101e-06  0.
-2.948976264878123e-19 2.6817372024880385e-06  0.
-6.489317328634932e-18 2.6817372024864605e-06  0.
-1.261026972128622e-16 2.6817372024538764e-06  0.
-2.1377996838461736e-15 2.6817372018606255e-06  0.
-3.124604290396371e-14 2.681737192497533e-06  0.
-3.887207537878053e-13 2.6817370659021474e-06  0.
-4.0550504461500284e-12 2.68173562016851e-06  0.
-3.4860153555495616e-11 2.681721902919958e-06  0.
-2.421544013540296e-10 2.6816158494183048e-06  0.
-1.3317965712440047e-09 2.680961787593142e-06  0.
-5.704037396385657e-09 2.677809963031222e-06  0.
-1.8996032105841277e-08 2.666075970832218e-06  0.
-5.044174439591134e-08 2.6318703990681676e-06  0.
-1.1075530297711426e-07 2.5504798192193766e-06  0.
-2.048058942015266e-07 2.3904561767718326e-06  0.
-3.3542231171667583e-07 2.132748089458715e-06  0.
-5.590183641596535e-07 1.8633165989548487e-06  0.
-1.2484237946862654e-06 2.1767420746771992e-06  0.
0.0 5.45054464386504e-06  0.
-7.119872721010685e-21 5.45054464386503e-06  0.
-7.542558930214001e-21 5.450544643865027e-06  0.
-4.356974973454376e-19 5.450544643864951e-06  0.
-9.850432886223002e-18 5.450544643862998e-06  0.
-1.9659144508231733e-16 5.450544643821171e-06  0.
-3.433897614508026e-15 5.450544643037849e-06  0.
-5.1929953612886675e-14 5.450544630262445e-06  0.
-6.718223499230801e-13 5.45054445092184e-06  0.
-7.331911104030136e-12 5.450542312052705e-06  0.
-6.6400810986778e-11 5.450520977448116e-06  0.
-4.896275646475575e-10 5.4503462044815895e-06  0.
-2.8778970987379863e-09 5.449195551157066e-06  0.
-1.3205208408160668e-08 5.443247067288492e-06  0.
-4.667411962450071e-08 5.419611927734557e-06  0.
-1.2821671562700157e-07 5.347893352289946e-06  0.
-2.848165771965213e-07 5.177272907477399e-06  0.
-5.306386542702889e-07 4.847615783378026e-06  0.
-8.728876018676413e-07 4.357314692156561e-06  0.
-1.469101004973664e-06 4.009583870447252e-06  0.
-2.8247997657723292e-06 4.89059178682164e-06  0.
0.0 8.10334147645511e-06  0.
4.039800133143344e-22 8.103341476455121e-06  0.
-1.417668820526466e-20 8.103341476455124e-06  0.
-5.961534654630246e-19 8.103341476455023e-06  0.
-1.3778594976110056e-17 8.103341476452854e-06  0.
-2.8090493267460084e-16 8.103341476405639e-06  0.
-5.023063207766888e-15 8.10334147550068e-06  0.
-7.801522021000086e-14 8.103341460356945e-06  0.
-1.0405333645669684e-12 8.103341241422663e-06  0.
-1.1760480430283046e-11 8.103338540962797e-06  0.
-1.1088820988489004e-10 8.103310534116001e-06  0.
-8.562895214798714e-10 8.103070620686826e-06  0.
-5.3008632886249415e-09 8.101408030069541e-06  0.
-2.5696922011610297e-08 8.092318765936647e-06  0.
-9.549650073808753e-08 8.054162733836975e-06  0.
-2.7009222716970235e-07 7.934028581177166e-06  0.
-5.974807643871864e-07 7.651358382455748e-06  0.
-1.1006242135341908e-06 7.142028837482946e-06  0.
-1.7968780400141692e-06 6.522311797285318e-06  0.
-2.953905861912293e-06 6.51557728289378e-06  0.
-4.675359048985474e-06 8.15655241701499e-06  0.
0.0 1.0220428155063277e-05  0.
1.963315548757571e-21 1.0220428155063282e-05  0.
-1.767393591245866e-20 1.0220428155063258e-05  0.
-7.618770450107412e-19 1.0220428155063189e-05  0.
-1.7843491348449256e-17 1.0220428155061088e-05  0.
-3.6967672037174313e-16 1.0220428155014754e-05  0.
-6.7286844585147346e-15 1.0220428154111388e-05  0.
-1.0662552880453704e-13 1.0220428138702724e-05  0.
-1.4550428699250903e-12 1.0220427911042653e-05  0.
-1.688208003799322e-11 1.0220425031750482e-05  0.
-1.6404185560366744e-10 1.0220394301455795e-05  0.
-1.3111858503110669e-09 1.022012211819941e-05  0.
-8.439186989927763e-09 1.0218162794214906e-05  0.
-4.267259198357609e-08 1.0206979068824115e-05  0.
-1.6513955559235942e-07 1.0157887512769924e-05  0.
-4.79541141092255e-07 9.997925377805281e-06  0.
-1.054529059953915e-06 9.62478445223949e-06  0.
-1.8866986217080228e-06 9.030295838737405e-06  0.
-3.040182685614445e-06 8.55394034326284e-06  0.
-4.6188865504788155e-06 9.247444425420532e-06  0.
-6.145945115505174e-06 1.1032555004437148e-05  0.
0.0 1.2689164171062271e-05  0.
-4.1176081603656986e-21 1.2689164171062265e-05  0.
-3.023507530359702e-20 1.2689164171062278e-05  0.
-9.18261174176203e-19 1.268916417106221e-05  0.
-2.1450210395484545e-17 1.2689164171060513e-05  0.
-4.491460722110548e-16 1.2689164171023149e-05  0.
-8.27719852200738e-15 1.2689164170285984e-05  0.
-1.3301489157524067e-13 1.2689164157541506e-05  0.
-1.8443181290713883e-12 1.2689163966331338e-05  0.
-2.1792003282882796e-11 1.268916150552279e-05  0.
-2.162214025202091e-10 1.2689134705402259e-05  0.
-1.7701551040441494e-09 1.2688891793826115e-05  0.
-1.1707502086723653e-08 1.2687095245018661e-05  0.
-6.100139353391666e-08 1.2676522633936925e-05  0.
-2.4334998105723137e-07 1.2628517254512182e-05  0.
-7.233413163150556e-07 1.2467186507454865e-05  0.
-1.5901889324777299e-06 1.2092669539791894e-05  0.
-2.7449304457110274e-06 1.1585545048846223e-05  0.
-4.257186070081335e-06 1.149384239237124e-05  0.
-5.845765743059299e-06 1.242947292629162e-05  0.
-7.126445203052395e-06 1.3312311222231294e-05  0.
0.0 1.5076511671533359e-05  0.
-3.52530225366329e-21 1.5076511671533372e-05  0.
-3.108811240183833e-20 1.5076511671533372e-05  0.
-1.008790550851026e-18 1.5076511671533352e-05  0.
-2.3945270070634366e-17 1.5076511671532419e-05  0.
-5.044631036177261e-16 1.5076511671511505e-05  0.
-9.364964654402096e-15 1.5076511671096224e-05  0.
-1.5174608565018827e-13 1.5076511663858654e-05  0.
-2.1239051755046973e-12 1.507651155428422e-05  0.
-2.5366173122406684e-11 1.5076510129297526e-05  0.
-2.5479850606561625e-10 1.5076494425540991e-05  0.
-2.1155957816548383e-09 1.5076350089399539e-05  0.
-1.4219226560587583e-08 1.5075265536253622e-05  0.
-7.543344844114027e-08 1.5068760856929207e-05  0.
-3.0670888637787485e-07 1.5038585474166036e-05  0.
-9.272265696021472e-07 1.4935014387270984e-05  0.
-2.047624120408238e-06 1.469379936141875e-05  0.
-3.421982384955132e-06 1.4414751483188028e-05  0.
-4.916948170867427e-06 1.458197284704854e-05  0.
-6.493055421241152e-06 1.5054474032268976e-05  0.
-7.699440632048264e-06 1.5047257237122535e-05  0.
0.0 1.7450000000000028e-05  0.
-8.780870409870714e-21 1.7450000000000028e-05  0.
-2.3758337444915812e-20 1.7450000000000028e-05  0.
-1.0429178061957727e-18 1.7450000000000028e-05  0.
-2.4823786759498e-17 1.7450000000000028e-05  0.
-5.243131144467235e-16 1.7450000000000028e-05  0.
-9.75706398025642e-15 1.7450000000000028e-05  0.
-1.585331216790443e-13 1.7450000000000028e-05  0.
-2.2258047281415705e-12 1.7450000000000028e-05  0.
-2.6677666038323183e-11 1.7450000000000028e-05  0.
-2.69062431251138e-10 1.7450000000000028e-05  0.
-2.2444860222957207e-09 1.7450000000000028e-05  0.
-1.516612635926962e-08 1.7450000000000028e-05  0.
-8.094380053002175e-08 1.7450000000000028e-05  0.
-3.3127640233394264e-07 1.7450000000000028e-05  0.
-1.0078314708096082e-06 1.7450000000000028e-05  0.
-2.2320666283249293e-06 1.7450000000000028e-05  0.
-3.678479825082835e-06 1.7450000000000028e-05  0.
-5.042788818379232e-06 1.7450000000000028e-05  0.
-6.706707496154096e-06 1.7450000000000028e-05  0.
-7.877324935885113e-06 1.7450000000000028e-05  0.
</DataArray>
<DataArray type="Float64" Name="sigma_xx" NumberOfComponents="1" format="ascii" >
6.217248937900875e-07 
6.217248937900875e-07 
6.217248937900875e-07 
6.217248937900875e-07 
6.217248937900875e-07 
6.217248937900875e-07 
6.217248937900875e-07 
6.217248937900875e-07 
6.217248937900875e-07 
6.217248937900875e-07 
6.217248937900875e-07 
6.217248937900875e-07 
6.217248937900875e-07 
6.217248937900875e-07 
6.217248937900875e-07 
6.217248937900875e-07 
6.217248937900875e-07 
6.217248937900875e-07 
6.217248937900875e-07 
4.773959005888171e-07 
3.3306690738754686e-07 
1.2123635428906706e-05 
1.2123635428906706e-05 
1.2123635428906706e-05 
1.2123635428906706e-05 
1.2123635428906706e-05 
1.2123635428906706e-05 
1.2123635428906706e-05 
1.2123635428906706e-05 
1.2123635428906706e-05 
1.2123635428906706e-05 
1.2123635428906706e-05 
1.2123635428906706e-05 
1.197375532058231e-05 
1.1740608485411027e-05 
1.1429746038515983e-05 
1.0969003483296543e-05 
1.0191847366058934e-05 
9.10382880192628e-06 
7.710498906021709e-06 
5.467848396278894e-06 
4.074518500374323e-06 
0.0002866151760372303 
0.0002866151760372303 
0.0002866151760372303 
0.0002866151760372303 
0.0002866151760372303 
0.0002866151760372303 
0.0002866151760372303 
0.0002866151760372303 
0.00028654301154062967 
0.00028639313143230527 
0.00028593238887708583 
0.00028471114354999816 
0.00028219093728409906 
0.0002777278407251059 
0.0002700117907039611 
0.0002578770530448081 
0.0002396804976712018 
0.0002143896171702408 
0.00018111068200710173 
0.0001286359907481937 
9.514611321037586e-05 
0.005897371480045875 
0.005897371480045875 
0.005897371480045875 
0.005897371480045875 
0.005897371480045875 
0.005897371480045875 
0.005897299315549274 
0.005896849675224301 
0.0058954174875225345 
0.005891559462511962 
0.005881906073312846 
0.005859857044043791 
0.005814615455790316 
0.005729589025449398 
0.005580857997955489 
0.005340444753088034 
0.004978012446699152 
0.004465749992021982 
0.0037797709406817135 
0.0026854407586540665 
0.0019805934670102934 
0.10654654936104177 
0.10654654936104177 
0.10654654936104177 
0.10654654936104177 
0.10654654936104177 
0.10654647719654517 
0.10654521709341222 
0.10654006010746284 
0.10652270177047282 
0.10647017156806268 
0.10633046665375898 
0.10599877642292196 
0.10528800609144182 
0.10389887838968545 
0.10140542849867981 
0.09727072480814056 
0.09090551089663276 
0.08176651578040148 
0.06935702012711428 
0.04928044083918335 
0.03628883860073982 
1.677145955447656 
1.6771460331632677 
1.6771461108788794 
1.6771460331632677 
1.677145727851936 
1.6771443178686947 
1.677134908728561 
1.67709023335405 
1.6769131083727014 
1.6763239130135328 
1.674633415271742 
1.6703724958766482 
1.6607763553277972 
1.6412564474155285 
1.6050461126848599 
1.543363281619747 
1.4462951669624853 
1.3044631652636691 
1.1089500762118116 
0.7877361596353435 
0.5788562407182949 
22.758312789861172 
22.758312867576784 
22.758312945292396 
22.758312867576784 
22.75831205156286 
22.75830506270892 
22.75825070063852 
22.757929390992963 
22.75646514560136 
22.751003875276503 
22.733928956020215 
22.687733269854952 
22.577788783006973 
22.343777483779796 
21.893715779208726 
21.10413096501062 
19.832037329026157 
17.93784124015651 
15.283602805560287 
10.84903444303897 
7.949621150249438 
262.9059830505652 
262.9059830505652 
262.9059830505652 
262.9059829006851 
262.9059804193367 
262.9059523806542 
262.905698789062 
262.9039162205248 
262.8942222138163 
262.8532634219026 
262.71095539542864 
262.2946247532453 
261.2379893796034 
258.87495744281165 
254.14357207598204 
245.57718601991843 
231.42244356677548 
209.92094121874408 
179.25487892367357 
127.07253734256514 
92.76125882418103 
2547.2386848690567 
2547.2386847913413 
2547.238684713626 
2547.238684202923 
2547.2386763258905 
2547.238579925225 
2547.2376067259265 
2547.229737465128 
2547.1797301113147 
2546.9327147531467 
2545.972798639883 
2542.88696063809 
2534.493516304081 
2514.633042913216 
2473.136167110978 
2395.3960643779965 
2263.5425440620243 
2059.0488333138696 
1761.869028146789 
1246.0917253626076 
904.813866337006 
20328.842500827443 
20328.842500672014 
20328.84250051658 
20328.8424991399 
20328.842477601575 
20328.842193356726 
20328.839038391547 
20328.810474146136 
20328.603715252793 
20327.42818004473 
20322.203628486684 
20303.691283043983 
20249.10290312209 
20112.154715101744 
19812.34028290701 
19231.120581786327 
18218.700148850403 
16616.46481669609 
14242.225574670469 
10034.337938574774 
7232.827324699095 
130700.69616298858 
130700.69616298858 
130700.6961628387 
130700.69615949139 
130700.69610777718 
130700.69537233772 
130700.68654119078 
130700.59889105363 
130699.8932523173 
130695.37266310323 
130672.64596260671 
130582.76976583013 
130295.57936808652 
129527.3369561478 
127767.88300225546 
124238.50712843517 
117943.66981432989 
107799.63622075116 
92481.92185762057 
64751.77074345137 
46168.11982614542 
658202.7764620465 
658202.7764621243 
658202.7764618356 
658202.7764551577 
658202.7763430362 
658202.7746495241 
658202.7529501485 
658202.5207426177 
658200.4816598818 
658186.066922392 
658105.4753881264 
657752.3910818199 
656527.2009622311 
653047.8037863494 
644728.0188856428 
627573.3111583857 
596437.4433526513 
545705.6675468972 
467877.28524249315 
324219.90560401446 
227420.78986442415 
2502548.6993053285 
2502548.6993053285 
2502548.699304679 
2502548.6992925163 
2502548.699071027 
2502548.695565969 
2502548.648178947 
2502548.108734925 
2502543.023072351 
2502504.052423911 
2502265.98887008 
2501125.0908218618 
2496850.3095697807 
2484073.3831207626 
2452479.2354005557 
2386345.911853673 
2265958.050248609 
2070532.797421725 
1768574.4394408474 
1204137.0099438834 
822642.0113500328 
6840030.83858211 
6840030.83858211 
6840030.838581027 
6840030.838559838 
6840030.838160824 
6840030.831596698 
6840030.738827388 
6840029.627871617 
6840018.530022056 
6839927.715469446 
6839331.117097519 
6836247.192132192 
6823879.15658615 
6785247.5468295375 
6688358.416857671 
6486124.727950693 
6126927.524637282 
5561468.966276934 
4699425.8289375845 
3097777.520239671 
2017734.793020358 
12657134.008152222 
12657134.008152144 
12657134.008150479 
12657134.008116743 
12657134.007458815 
12657133.996280912 
12657133.832477948 
12657131.788395366 
12657110.38962803 
12656925.746831927 
12655639.12191043 
12648561.008482821 
12618477.155584108 
12520863.67078077 
12275865.619429903 
11780547.69865772 
10950020.331823245 
9740864.930899888 
7991833.865143135 
4921776.749296719 
2898316.5404256145 
15221662.11901858 
15221662.119018504 
15221662.11901611 
15221662.118966145 
15221662.117969053 
15221662.100581385 
15221661.83823172 
15221658.454372501 
15221621.677675845 
15221290.625413863 
15218872.544082573 
15204882.832197834 
15142480.53437078 
14933197.917640543 
14410644.945831073 
13413798.899369687 
11890072.574836675 
9951476.227030553 
7456136.115607575 
3828283.5568578946 
1647858.6486364168 
13387928.115066634 
13387928.115066634 
13387928.115063526 
13387928.114994518 
13387928.113599584 
13387928.08877265 
13387927.705451775 
13387922.631120082 
13387865.837927314 
13387337.384309454 
13383332.182435477 
13359218.600881455 
13247353.970421245 
12861289.625967462 
11902333.895920806 
10201114.056219462 
7930440.693237983 
5478400.567391792 
2926654.793296779 
594212.772937597 
-404898.81445339945 
12869918.34276012 
12869918.34276012 
12869918.342756184 
12869918.34266787 
12869918.340861522 
12869918.308207612 
12869917.795175828 
12869910.869198687 
12869831.617136236 
12869075.566500105 
12863183.618453398 
12826621.442860458 
12651764.148339447 
12033787.887569789 
10501892.641722592 
7974067.216898771 
5172973.220527185 
2668450.7775911363 
732957.6548840066 
-87573.4660579605 
-146442.52607973438 
13630057.285809278 
13630057.285809278 
13630057.285804698 
13630057.285700016 
13630057.28353035 
13630057.24387769 
13630056.613244109 
13630047.98214153 
13629947.682131857 
13628974.060440103 
13621237.741106158 
13572200.83383957 
13332530.241642633 
12470087.963280493 
10329902.512896761 
6996277.05062194 
4043824.532217291 
2124557.2720665545 
746021.5387246894 
122463.83833882416 
52233.48382562905 