<?xml version="1.0"?>
<VTKFile type="UnstructuredGrid" version="0.1" byte_order="LittleEndian" compressor="vtkZLibDataCompressor">
<UnstructuredGrid>
<Piece NumberOfPoints="441" NumberOfCells="400">
<PointData>
<DataArray type="Float64" Name="displacement" NumberOfComponents="3" format="ascii" >
0.0 7.632413785099703e-20  0.
5.995616755035272e-24 7.664780472664799e-20  0.
-1.113071183009098e-25 7.66521590650006e-20  0.
-1.0394101418552066e-27 7.665203944965929e-20  0.
-1.5022412414691844e-27 7.665203356842354e-20  0.
-1.2418081176049312e-26 7.66520289453839e-20  0.
-6.205666876424423e-26 7.665199541756123e-20  0.
-8.860219000505974e-25 7.665127097172551e-20  0.
-1.7274819150592583e-23 7.663869070722396e-20  0.
-3.554989063551562e-23 7.665211834037059e-20  0.
-3.448309370825773e-23 7.664714971721302e-20  0.
-7.93238403002229e-23 7.661742613465465e-20  0.
-3.0590452284371317e-22 7.650275091340079e-20  0.
-4.38828079901497e-22 7.612414491085526e-20  0.
-1.4991751601594387e-21 7.555907820287186e-20  0.
-3.923684506150482e-21 7.02659888978927e-20  0.
-3.858103168804751e-21 6.087471377776348e-20  0.
-4.163958503864461e-21 5.466193198799891e-20  0.
-6.402556138206719e-21 4.4646973671000676e-20  0.
-6.743602176727741e-21 3.2079585378945246e-20  0.
-1.7633424994938663e-20 3.240212308881619e-20  0.
0.0 1.273900132167561e-18  0.
-1.879875995257426e-23 1.275144228837466e-18  0.
-2.741674011219972e-25 1.2751409766196537e-18  0.
-2.104317941086653e-25 1.2751403568401666e-18  0.
-9.824583576354714e-25 1.275140345974822e-18  0.
-9.512630490864779e-25 1.2751406663560704e-18  0.
-2.3084464092656175e-24 1.2751390066771098e-18  0.
-1.4247774977730395e-23 1.2751299563512344e-18  0.
-2.9826768678118776e-22 1.2748950081422575e-18  0.
-9.417726779206566e-22 1.272637194928625e-18  0.
-1.97815686033145e-21 1.2701430806276705e-18  0.
-3.193984431989233e-21 1.2666489540144927e-18  0.
-7.504638243487168e-21 1.257091474168267e-18  0.
-1.3139132323069887e-20 1.2374818092072315e-18  0.
-2.389205368484605e-20 1.2011269123680894e-18  0.
-3.8167873661480004e-20 1.1439039877465324e-18  0.
-5.0549930361317824e-20 1.058224591759942e-18  0.
-6.84057550262534e-20 9.547374008349128e-19  0.
-8.879884857447319e-20 8.035667206448346e-19  0.
-1.1073455115950787e-19 6.315120268471668e-19  0.
-3.336749450359011e-19 6.386882112227752e-19  0.
0.0 2.945499521825992e-17  0.
-4.2448086621898633e-23 2.945140523059653e-17  0.
-2.2074356615155497e-23 2.9451375871977806e-17  0.
-2.6714311773256656e-24 2.945136439877653e-17  0.
-1.8323573810168575e-22 2.945121658473297e-17  0.
-1.9646734931057204e-23 2.9450666199696546e-17  0.
-2.2118647979661357e-22 2.9450522509147836e-17  0.
-1.0783444112107804e-21 2.944918849326098e-17  0.
-4.542460688699817e-21 2.9444810681618064e-17  0.
-1.5680484877758548e-20 2.942787079569273e-17  0.
-4.0208065799163776e-20 2.937533074144302e-17  0.
-8.349332659444609e-20 2.925943633133595e-17  0.
-1.627740979336967e-19 2.9037191710088763e-17  0.
-3.0073920660132663e-19 2.861334133519858e-17  0.
-5.102929206238562e-19 2.7875242978048405e-17  0.
-7.993780737456621e-19 2.668672852785379e-17  0.
-1.1704127703411547e-18 2.4881042897070234e-17  0.
-1.6063389334656643e-18 2.2338532221397898e-17  0.
-2.079505441670279e-18 1.896460900968384e-17  0.
-2.6614147879306133e-18 1.4904642329459694e-17  0.
-8.099004745893512e-18 1.517078863917467e-17  0.
0.0 6.060512879128823e-16  0.
-1.2674376090659399e-21 6.06052396412064e-16  0.
-4.346798589259417e-22 6.060501122419546e-16  0.
-1.5886705864736887e-24 6.06049722440629e-16  0.
-2.0618558655205002e-22 6.060498377363744e-16  0.
-7.27764307490066e-22 6.060496839049743e-16  0.
-6.400787017807425e-21 6.060416561088859e-16  0.
-2.561995094452874e-20 6.060134522225404e-16  0.
-8.80314251023662e-20 6.059142769051716e-16  0.
-2.5513482757437943e-19 6.056129223512825e-16  0.
-6.450087750063306e-19 6.048230686353945e-16  0.
-1.4630466829047805e-18 6.029447360815796e-16  0.
-3.0012154118948757e-18 5.989508080618834e-16  0.
-5.678302055599569e-18 5.911530009416704e-16  0.
-9.86609784148081e-18 5.77166561946782e-16  0.
-1.5882372146788938e-17 5.539130719141054e-16  0.
-2.3781740457572423e-17 5.180300398631783e-16  0.
-3.320659589772547e-17 4.663602405889577e-16  0.
-4.345813471655581e-17 3.969716935566842e-16  0.
-5.646757680675808e-17 3.1281554085744204e-16  0.
-1.7093660042786555e-16 3.19355216128589e-16  0.
0.0 1.1046833513214147e-14  0.
-3.2592788794685247e-21 1.1046829290806467e-14  0.
-4.338885076720539e-22 1.1046830395720086e-14  0.
-2.141138436697212e-23 1.1046830602797885e-14  0.
-8.626960841306402e-22 1.1046829375981081e-14  0.
-9.57222720508127e-21 1.1046820794298188e-14  0.
-7.090860373589623e-20 1.1046759852244524e-14  0.
-3.159040511115328e-19 1.1046435303974736e-14  0.
-1.1144454498657463e-18 1.1045214249186401e-14  0.
-3.4476186788046155e-18 1.1041306618118506e-14  0.
-9.274396894931881e-18 1.103027663577021e-14  0.
-2.2243476113612666e-17 1.1002729247808685e-14  0.
-4.7997591228828766e-17 1.0940963566543193e-14  0.
-9.41468749368489e-17 1.0815287537899429e-14  0.
-1.6903624382458928e-16 1.058164774288139e-14  0.
-2.7949731959198013e-16 1.0182104747360303e-14  0.
-4.275154341115601e-16 9.550655300279662e-15  0.
-6.073849774591359e-16 8.624544914642047e-15  0.
-8.057744883565573e-16 7.361921122896343e-15  0.
-1.0611521847414101e-15 5.818167377389525e-15  0.
-3.198597667997316e-15 5.960759581081832e-15  0.
0.0 1.7689554686281286e-13  0.
-1.5201317425825116e-21 1.7689554702771e-13  0.
-1.945028410513153e-22 1.7689554771556642e-13  0.
-4.257553294749007e-22 1.768955473317885e-13  0.
-7.30951559500343e-21 1.7689553868400485e-13  0.
-8.322025653566542e-20 1.7689547013588232e-13  0.
-5.6455964412160155e-19 1.7689497069566974e-13  0.
-2.835011535298386e-18 1.768922788474723e-13  0.
-1.1515582410454808e-17 1.7688057677932237e-13  0.
-3.905862120146256e-17 1.7683848387043703e-13  0.
-1.1399795133587094e-16 1.767091774586447e-13  0.
-2.91381694408243e-16 1.763628686327426e-13  0.
-6.633704650731685e-16 1.755401208644542e-13  0.
-1.3588206840985145e-15 1.7378575239591363e-13  0.
-2.5292577074571755e-15 1.703944849546986e-13  0.
-4.305769612898547e-15 1.6440753987847575e-13  0.
-6.744988324888586e-15 1.546953298410703e-13  0.
-9.764763801433491e-15 1.401494106688848e-13  0.
-1.315034631498948e-14 1.199948033259318e-13  0.
-1.7574575399504044e-14 9.514362011701851e-14  0.
-5.268503826383241e-14 9.78840824388356e-14  0.
0.0 2.4654110305216772e-12  0.
-7.056932661382377e-21 2.4654110271976625e-12  0.
-7.433835229618425e-22 2.465411024970361e-12  0.
-2.411659415342098e-22 2.465411023245502e-12  0.
-3.9521308045745006e-20 2.4654109998222526e-12  0.
-4.254905355153714e-19 2.465410692846354e-12  0.
-3.340191752440884e-18 2.4654080707331393e-12  0.
-2.0465076456707024e-17 2.4653903643203213e-12  0.
-9.599653587459761e-17 2.465299968491251e-12  0.
-3.674765577147261e-16 2.4649291503832027e-12  0.
-1.1755281928291859e-15 2.4636685060128866e-12  0.
-3.2437186001491713e-15 2.460000979196135e-12  0.
-7.841348501244e-15 2.4506933936916984e-12  0.
-1.688670910332295e-14 2.4297418952489157e-12  0.
-3.271080153868416e-14 2.3874237422668158e-12  0.
-5.75496694807877e-14 2.3099852831074606e-12  0.
-9.25285117159113e-14 2.1806718022759762e-12  0.
-1.367820406948795e-13 1.9824675184569326e-12  0.
-1.8724039577570478e-13 1.7029387626053386e-12  0.
-2.544198095742998e-13 1.3553187015848647e-12  0.
-7.569879074215497e-13 1.4013071796781561e-12  0.
0.0 2.9583265171363124e-11  0.
-1.2469952891063559e-20 2.958326517380619e-11  0.
2.581601844213751e-21 2.958326517949207e-11  0.
-5.9559880159243716e-21 2.958326517571215e-11  0.
-1.506425765359194e-19 2.95832650856009e-11  0.
-1.7091900909929305e-18 2.958326399493573e-11  0.
-1.5629770565252272e-17 2.958325304811152e-11  0.
-1.1360856746678526e-16 2.9583165345277454e-11  0.
-6.409825772753787e-16 2.9582617605787784e-11  0.
-2.802058823751909e-15 2.9580008830408576e-11  0.
-1.0045810715999133e-14 2.956996460952278e-11  0.
-3.019102915851151e-14 2.9537814555179665e-11  0.
-7.839410548732346e-14 2.944962202917375e-11  0.
-1.7844740917294446e-13 2.923845999322188e-11  0.
-3.619311489674158e-13 2.878999699424795e-11  0.
-6.600772886776896e-13 2.7935688210921138e-11  0.
-1.0928100518372995e-12 2.6462221757178444e-11  0.
-1.6523054446937372e-12 2.4145430861095293e-11  0.
-2.303365274576891e-12 2.0814472757126086e-11  0.
-3.1881388051543905e-12 1.6637751389858098e-11  0.
-9.390195720258509e-12 1.730611331102985e-11  0.
0.0 3.0176608990410303e-10  0.
-2.3844064811222623e-21 3.017660899182778e-10  0.
4.373124165765769e-21 3.017660899158179e-10  0.
-2.720981232662035e-20 3.0176608990030647e-10  0.
-4.672739093360277e-19 3.0176608965662434e-10  0.
-5.804845166396279e-18 3.0176608633111726e-10  0.
-5.988893217200473e-17 3.017660489427699e-10  0.
-5.011627748234729e-16 3.017657048177031e-10  0.
-3.3215736508233067e-15 3.0176318439530794e-10  0.
-1.7174980055656144e-14 3.017487396339998e-10  0.
-6.95770222953213e-14 3.016848795962658e-10  0.
-2.3229150022397447e-13 3.014553974855977e-10  0.
-6.52409716288013e-13 3.007674724416756e-10  0.
-1.5857460502139649e-12 2.989973161050813e-10  0.
-3.3815114494041075e-12 2.95018890864143e-10  0.
-6.4263552628941885e-12 2.870873381195595e-10  0.
-1.0979181141525596e-11 2.729085739723609e-10  0.
-1.702353614469053e-11 2.4997921381531205e-10  0.
-2.4198473595172466e-11 2.1631982502704256e-10  0.
-3.420710602345068e-11 1.7380634837653725e-10  0.
-9.935149333406892e-11 1.8212866708525547e-10  0.
0.0 2.5776874339767725e-09  0.
1.364330171480241e-21 2.577687433978712e-09  0.
-1.5579476075588603e-21 2.5776874339762187e-09  0.
-7.611542201158999e-20 2.5776874339348195e-09  0.
-1.2643904618092061e-18 2.577687433332301e-09  0.
-1.7028888903275088e-17 2.5776874246354255e-09  0.
-1.9366783746737954e-16 2.577687317002371e-09  0.
-1.8164935709174273e-15 2.5776862119921734e-09  0.
-1.3760994855335286e-14 2.5776769775474106e-09  0.
-8.256427130819209e-14 2.5776155928966244e-09  0.
-3.8841353185356026e-13 2.5772952233526635e-09  0.
-1.4484194965075684e-12 2.5759897246443283e-09  0.
-4.472982192982275e-12 2.5716408915380415e-09  0.
-1.1666560489430109e-11 2.559509490479884e-09  0.
-2.637747856758532e-11 2.530410712568099e-09  0.
-5.2376586651820395e-11 2.4693953815269707e-09  0.
-9.271486299082262e-11 2.355892671608652e-09  0.
-1.475930251547594e-10 2.1666579846148e-09  0.
-2.1439724291107436e-10 1.882681524945647e-09  0.
-3.102274777238238e-10 1.5222148907655361e-09  0.
-8.840259224657293e-10 1.6099962941911457e-09  0.
0.0 1.8109391746151312e-08  0.
-5.609791626463461e-21 1.810939174614285e-08  0.
-6.486614311212136e-21 1.8109391746146773e-08  0.
-1.8158482657197319e-19 1.8109391746073988e-08  0.
-3.0370151101540513e-18 1.810939174478757e-08  0.
-4.39183830916489e-17 1.8109391724832846e-08  0.
-5.407364597109403e-16 1.8109391458457052e-08  0.
-5.564588628464643e-15 1.8109388468109133e-08  0.
-4.698763338967334e-14 1.8109360726009997e-08  0.
-3.1938810802014776e-13 1.8109152046830595e-08  0.
-1.719154857417173e-12 1.8107904771929284e-08  0.
-7.296049371231712e-12 1.8102031521862632e-08  0.
-2.48433475357419e-11 1.8080160901121743e-08  0.
-7.0388873763882e-11 1.8013194969499075e-08  0.
-1.6919799767296214e-10 1.7840738538074222e-08  0.
-3.5315485143415154e-10 1.745812978640647e-08  0.
-6.48344338677159e-10 1.671524350571978e-08  0.
-1.0622566605069927e-09 1.5435668318358296e-08  0.
-1.5777645735167733e-09 1.3472244736645708e-08  0.
-2.3443978053430077e-09 1.0979895325606748e-08  0.
-6.504149642353278e-09 1.1752268028558157e-08  0.
0.0 1.0237815903100344e-07  0.
-5.721818236307217e-21 1.0237815903101198e-07  0.
-1.6659875917417285e-20 1.0237815903100491e-07  0.
-3.766952334226305e-19 1.0237815903087439e-07  0.
-6.583837585615874e-18 1.023781590284146e-07  0.
-1.0086876422842486e-16 1.0237815898786195e-07  0.
-1.3258642716274698e-15 1.0237815841196855e-07  0.
-1.4718283837680085e-14 1.023781514612637e-07  0.
-1.3575199913856237e-13 1.0237808126373395e-07  0.
-1.0218111560932993e-12 1.0237749858344455e-07  0.
-6.1659591990132366e-12 1.0237359551928543e-07  0.
-2.945591153678066e-11 1.0235285634550791e-07  0.
-1.1164620106015713e-10 1.0226574026789132e-07  0.
-3.4368522381250567e-10 1.0197252514868894e-07  0.
-8.844703447616021e-10 1.0115618183692337e-07  0.
-1.9410203079897947e-09 9.923513374909228e-08  0.
-3.7058104130207958e-09 9.533234932167604e-08  0.
-6.24286837495567e-09 8.838691964175972e-08  0.
-9.492388139218227e-09 7.75104308870962e-08  0.
-1.4512571011212497e-08 6.384427524761161e-08  0.
-3.878630946798908e-08 6.942036301544419e-08  0.
0.0 4.5341149400318225e-07  0.
-2.13340076879165e-21 4.534114940031841e-07  0.
-2.9546612716770127e-20 4.534114940031708e-07  0.
-7.111450336659819e-19 4.534114940029547e-07  0.
-1.2961508429159917e-17 4.534114939987067e-07  0.
-2.0842819912011948e-16 4.5341149392522483e-07  0.
-2.8911444643199193e-15 4.5341149282687414e-07  0.
-3.4152410291585034e-14 4.5341147876088334e-07  0.
-3.385012865315432e-13 4.5341132659707286e-07  0.
-2.768402444949122e-12 4.534099584194144e-07  0.
-1.835366948867389e-11 4.5339991665569343e-07  0.
-9.705798395998598e-11 4.5334080749927147e-07  0.
-4.0617595447141433e-10 4.5306553225608025e-07  0.
-1.358307238891064e-09 4.5204866999142725e-07  0.
-3.7328244592422376e-09 4.489993226542749e-07  0.
-8.616637847158929e-09 4.4139005215224595e-07  0.
-1.706274147117914e-08 4.25253643105486e-07  0.
-2.9507600198125116e-08 3.9567650622444455e-07  0.
-4.5842007512331644e-08 3.4873747710033396e-07  0.
-7.222856534822041e-08 2.9162612715186486e-07  0.
-1.829608833944704e-07 3.239277538338379e-07  0.
0.0 1.5225575010804797e-06  0.
-2.1426653532177375e-21 1.5225575010804757e-06  0.
-4.8936351721071075e-20 1.5225575010804522e-06  0.
-1.228965921659327e-18 1.522557501080125e-06  0.
-2.3328255671160052e-17 1.5225575010734743e-06  0.
-3.9003813271004493e-16 1.5225575009544882e-06  0.
-5.656251788385447e-15 1.5225574990989338e-06  0.
-7.030554384554931e-14 1.5225574741543622e-06  0.
-7.388742401780882e-13 1.5225571887874926e-06  0.
-6.463987881567749e-12 1.5225544519128695e-06  0.
-4.626496896104952e-11 1.5225328194923957e-06  0.
-2.661894457642046e-10 1.5223944860317266e-06  0.
-1.214014369825208e-09 1.5216909112254079e-06  0.
-4.3797770148720285e-09 1.5188714867282703e-06  0.
-1.2730511454444624e-08 1.5098809803798242e-06  0.
-3.072959613164282e-08 1.4863315273175456e-06  0.
-6.264902494369137e-08 1.4347214362515193e-06  0.
-1.105745793071277e-07 1.338329776623067e-06  0.
-1.7467382337727542e-07 1.1860067027650047e-06  0.
-2.8315861997413e-07 1.0152363599765025e-06  0.
-6.6340625319154e-07 1.1612764842573397e-06  0.
0.0 3.7436628704988245e-06  0.
-7.757734849421525e-21 3.743662870498811e-06  0.
-7.798838070945414e-20 3.7436628704987906e-06  0.
-1.9648031483484277e-18 3.743662870498354e-06  0.
-3.846201653835075e-17 3.7436628704890447e-06  0.
-6.639187836409234e-16 3.743662870317464e-06  0.
-9.984025343157586e-15 3.743662867546933e-06  0.
-1.2934473316960303e-13 3.743662828795779e-06  0.
-1.4253464914929621e-12 3.7436623648857467e-06  0.
-1.3165274148534665e-11 3.7436576778754076e-06  0.
-1.002326747371042e-10 3.7436183560735882e-06  0.
-6.176361673084127e-10 3.743349458205233e-06  0.
-3.02702830852303e-09 3.741879417927582e-06  0.
-1.1668755772648401e-08 3.7355609084816534e-06  0.
-3.5579640088060407e-08 3.7143039904459197e-06  0.
-8.825329764507125e-08 3.6572338092203036e-06  0.
-1.8337727109693232e-07 3.5304414389024605e-06  0.
-3.256072179782199e-07 3.295246288799885e-06  0.
-5.197932585314383e-07 2.9392124470467635e-06  0.
-8.57868893212804e-07 2.6158795346837363e-06  0.
-1.7943335362034791e-06 3.1118974516888605e-06  0.
0.0 6.6361001516180445e-06  0.
-1.0358205842743574e-20 6.636100151618035e-06  0.
-1.2021729668581824e-19 6.636100151618011e-06  0.
-2.9024238758509407e-18 6.6361001516174685e-06  0.
-5.823142593119844e-17 6.636100151605895e-06  0.
-1.0316789834582988e-15 6.636100151386712e-06  0.
-1.597488377110056e-14 6.636100147746434e-06  0.
-2.1394569501483057e-13 6.636100095170562e-06  0.
-2.448585360960477e-12 6.636099442380835e-06  0.
-2.36152815233687e-11 6.636092566050571e-06  0.
-1.888384162083799e-10 6.636032071988597e-06  0.
-1.2292135723318967e-09 6.635595568732835e-06  0.
-6.386953386336391e-09 6.633065586324221e-06  0.
-2.6036495437720394e-08 6.621535098812626e-06  0.
-8.271889283529529e-08 6.580893745475287e-06  0.
-2.0826655511799965e-07 6.46994442368214e-06  0.
-4.320970582717649e-07 6.228080366901974e-06  0.
-7.61337955466045e-07 5.79938437017561e-06  0.
-1.2121896259185142e-06 5.2280054958454235e-06  0.
-1.9954366809828043e-06 4.970108330522852e-06  0.
-3.554064740462422e-06 6.164726594609354e-06  0.
0.0 9.027745817100405e-06  0.
-2.061116892220947e-21 9.027745817100422e-06  0.
-1.6698852229480432e-19 9.027745817100407e-06  0.
-3.977485115560641e-18 9.027745817099806e-06  0.
-8.134682450876143e-17 9.027745817086988e-06  0.
-1.471128075343173e-15 9.02774581683961e-06  0.
-2.3309892270347433e-14 9.027745812638475e-06  0.
-3.2041989314571957e-13 9.027745750423486e-06  0.
-3.777316333667212e-12 9.027744955622997e-06  0.
-3.7677894168514803e-11 9.027736307861353e-06  0.
-3.130292079197474e-10 9.027657358506482e-06  0.
-2.1267208739540286e-09 9.027063405188069e-06  0.
-1.1573556424270436e-08 9.023457502948877e-06  0.
-4.93796829043431e-08 9.006219259539527e-06  0.
-1.6248831797160932e-07 8.942932382951772e-06  0.
-4.131728448788648e-07 8.767601968985166e-06  0.
-8.418451168189642e-07 8.399070536289392e-06  0.
-1.455755991685953e-06 7.803185681110742e-06  0.
-2.2781000221842683e-06 7.212908440959499e-06  0.
-3.6160399003041874e-06 7.519924205771496e-06  0.
-5.3120337603060624e-06 9.390600242834467e-06  0.
0.0 1.1193256417696507e-05  0.
-1.5745273802491408e-21 1.11932564176965e-05  0.
-2.0888395139982838e-19 1.1193256417696454e-05  0.
-5.076045085239801e-18 1.1193256417695909e-05  0.
-1.052757884711473e-16 1.1193256417683511e-05  0.
-1.933669706369447e-15 1.1193256417440823e-05  0.
-3.11772421887908e-14 1.1193256413250195e-05  0.
-4.37072477313104e-13 1.1193256350017458e-05  0.
-5.268536933978776e-12 1.119325552492139e-05  0.
-5.389887036654673e-11 1.1193246327539545e-05  0.
-4.6082654615936597e-10 1.1193160022814125e-05  0.
-3.2334012242176286e-09 1.1192490015065517e-05  0.
-1.822615574230936e-08 1.1188277945433122e-05  0.
-8.058979470455693e-08 1.1167372167317817e-05  0.
-2.73117776766197e-07 1.1087899012034817e-05  0.
-7.010723670970369e-07 1.0864219261890006e-05  0.
-1.396731244777078e-06 1.0412668372338514e-05  0.
-2.3441549511379077e-06 9.793205481802203e-06  0.
-3.6012493833979717e-06 9.476439428910875e-06  0.
-5.240281860373915e-06 1.0473351513784056e-05  0.
-6.679546240478329e-06 1.2122092218812338e-05  0.
0.0 1.3733951350637535e-05  0.
-9.648544207994088e-21 1.3733951350637529e-05  0.
-2.5664086287847034e-19 1.3733951350637529e-05  0.
-6.0452811253525e-18 1.3733951350637085e-05  0.
-1.2640966738603428e-16 1.3733951350627192e-05  0.
-2.347045422531067e-15 1.3733951350431915e-05  0.
-3.8306265422738474e-14 1.3733951347019904e-05  0.
-5.444351307964227e-13 1.3733951294846198e-05  0.
-6.665381642749704e-12 1.3733950603710318e-05  0.
-6.940054614054642e-11 1.3733942767423059e-05  0.
-6.053306127500188e-10 1.373386778644347e-05  0.
-4.3439069799033195e-09 1.3733272754515382e-05  0.
-2.510011029899281e-08 1.3729437054727574e-05  0.
-1.1388390379283058e-07 1.3709872081691688e-05  0.
-3.949050947444561e-07 1.3633432851179477e-05  0.
-1.0245421388035938e-06 1.341440734732654e-05  0.
-2.0069963929898847e-06 1.2987865264564296e-05  0.
-3.234646434793364e-06 1.2535420166680905e-05  0.
-4.820527108508583e-06 1.2630554276395716e-05  0.
-6.3362079562312375e-06 1.360239670830395e-05  0.
-7.697627013165272e-06 1.4203694846738769e-05  0.
0.0 1.6051075340883044e-05  0.
-1.1887585369855622e-20 1.6051075340883047e-05  0.
-2.81820912526299e-19 1.605107534088304e-05  0.
-6.690365848628835e-18 1.6051075340882814e-05  0.
-1.4100203576380844e-16 1.6051075340877325e-05  0.
-2.6346291027525354e-15 1.6051075340768007e-05  0.
-4.331106510780731e-14 1.6051075338844778e-05  0.
-6.205812638852978e-13 1.60510753092076e-05  0.
-7.667589697524417e-12 1.6051074913174215e-05  0.
-8.06691677027664e-11 1.6051070377708496e-05  0.
-7.119554562573434e-10 1.6051026488800576e-05  0.
-5.177361125592029e-09 1.6050673605196487e-05  0.
-3.036019619718385e-08 1.60483651910399e-05  0.
-1.3992316842138764e-07 1.603639069722226e-05  0.
-4.924551273990876e-07 1.598875453706481e-05  0.
-1.289507188250415e-06 1.585046904094596e-05  0.
-2.505299377094814e-06 1.558682209113929e-05  0.
-3.8683755865974134e-06 1.5377074400678708e-05  0.
-5.435314490891939e-06 1.5648065685657376e-05  0.
-6.97048898161763e-06 1.602181310272277e-05  0.
-8.178854680391464e-06 1.5954387045604615e-05  0.
0.0 1.8450000000000018e-05  0.
-1.755631442278126e-20 1.8450000000000018e-05  0.
-2.847323058562657e-19 1.8450000000000018e-05  0.
-6.924138614629225e-18 1.8450000000000018e-05  0.
-1.461963112282348e-16 1.8450000000000018e-05  0.
-2.7378720896282722e-15 1.8450000000000018e-05  0.
-4.511566332775342e-14 1.8450000000000018e-05  0.
-6.481757409376793e-13 1.8450000000000018e-05  0.
-8.03283161133098e-12 1.8450000000000018e-05  0.
-8.480258056292984e-11 1.8450000000000018e-05  0.
-7.51352684802686e-10 1.8450000000000018e-05  0.
-5.487957409938244e-09 1.8450000000000018e-05  0.
-3.2339387780162783e-08 1.8450000000000018e-05  0.
-1.4983348163653336e-07 1.8450000000000018e-05  0.
-5.300899059945371e-07 1.8450000000000018e-05  0.
-1.393278317582241e-06 1.8450000000000018e-05  0.
-2.701556872859907e-06 1.8450000000000018e-05  0.
-4.089269079114206e-06 1.8450000000000018e-05  0.
-5.53512112110073e-06 1.8450000000000018e-05  0.
-7.237334155472596e-06 1.8450000000000018e-05  0.
-8.241409087352734e-06 1.8450000000000018e-05  0.
</DataArray>
<DataArray type="Float64" Name="sigma_xx" NumberOfComponents="1" format="ascii" >
6.838973831690962e-06 
6.838973831690962e-06 
6.838973831690962e-06 
6.838973831690962e-06 
6.838973831690962e-06 
6.838973831690962e-06 
6.838973831690962e-06 
6.838973831690962e-06 
6.838973831690962e-06 
6.838973831690962e-06 
6.683542608243441e-06 
6.528111384795919e-06 
6.528111384795919e-06 
6.528111384795919e-06 
6.383782391594648e-06 
6.072919944699605e-06 
5.595524044110787e-06 
4.9737991503207e-06 
4.207745263329342e-06 
3.008704396734173e-06 
2.2648549702353185e-06 
8.237854842718659e-05 
8.237854842718659e-05 
8.237854842718659e-05 
8.237854842718659e-05 
8.237854842718659e-05 
8.237854842718659e-05 
8.237854842718659e-05 
8.237854842718659e-05 
8.237854842718659e-05 
8.215095270713843e-05 
8.184009026024339e-05 
8.145706331674771e-05 
8.061329381803259e-05 
7.914779942552738e-05 
7.676637103770642e-05 
7.313594174718216e-05 
6.77846667684889e-05 
6.049050149670163e-05 
5.117573032009658e-05 
3.632094625061198e-05 
2.6667557051496247e-05 
0.0016935786106841981 
0.0016935786106841981 
0.0016935786106841981 
0.0016935786106841981 
0.0016935786106841981 
0.0016935786106841981 
0.0016935786106841981 
0.00169335101496415 
0.0016925960633074049 
0.001690925177655344 
0.0016873447084009279 
0.0016799284185964318 
0.001664746118734683 
0.0016373680189474267 
0.0015916379325631165 
0.0015190737556736163 
0.0014117429447679792 
0.0012627177081725445 
0.0010660083926694592 
0.000755695506171605 
0.000556388268790897 
0.030848901211300007 
0.030848901211300003 
0.030848901211300003 
0.030848901211300003 
0.030848901211300003 
0.03084875133119168 
0.03084815181075838 
0.030845442866578296 
0.03083729938069267 
0.0308161829387643 
0.030763452896209728 
0.030645297410813996 
0.030404034845332703 
0.029951441327114012 
0.02916676344888457 
0.027900298738003915 
0.02599412352033425 
0.02330741710743211 
0.019712337318011912 
0.01397637006128604 
0.010281175910620272 
0.4936105524322441 
0.49361055243224405 
0.49361055243224405 
0.49361055243224405 
0.49361048026774745 
0.4936092978802262 
0.4936032638180874 
0.4935781283688099 
0.4934920361243653 
0.49323616302387996 
0.4925628349639053 
0.49097790832952604 
0.48760563364780274 
0.4810539244726184 
0.4693518684817375 
0.4500208483637634 
0.42035227520997853 
0.3778632240436507 
0.3202342280239633 
0.22699486179611472 
0.16665402391424766 
6.872219637799047 
6.872219637799047 
6.872219637799047 
6.87221956563455 
6.872218683007246 
6.87221144990424 
6.8721677348726455 
6.871962382470896 
6.871169377919982 
6.868587476560604 
6.861294260529503 
6.843126854061408 
6.802596058674835 
6.720774470281297 
6.569924893007338 
6.3142387818349 
5.913500428222916 
5.329797853059757 
4.526323754694415 
3.2063745714072653 
2.347976790773031 
82.3378371039851 
82.3378371039851 
82.3378371039851 
82.337836665447 
82.3378324799062 
82.33779770772107 
82.33755134368079 
82.3361827217983 
82.33019999637212 
82.30856892166291 
82.24238315368557 
82.06627262197227 
81.65241224267203 
80.78044089754319 
79.11694033246872 
76.21763586929117 
71.57113497413545 
64.6804991344396 
55.04319852134285 
38.945928723665965 
28.42118333457043 
838.0421104625665 
838.0421104625665 
838.0421104625665 
838.0421091525034 
838.0420951192843 
838.0419571074601 
838.0408389685454 
838.0336310287448 
837.9970182104121 
837.8489231686267 
837.3507480285978 
835.9263035939698 
832.3750844807519 
824.5412226159929 
809.027810841356 
781.1850221500769 
735.501972540242 
666.4812919665584 
568.2924589994752 
401.30715063257924 
291.5170579931291 
7134.706383360443 
7134.706383360443 
7134.706383365994 
7134.706380029773 
7134.706337669214 
7134.705873435008 
7134.701672811825 
7134.670942182672 
7134.492037053072 
7133.666721770291 
7130.600792232264 
7121.074771343492 
7095.7931611825825 
7037.12219054242 
6916.359882164212 
6692.850115214142 
6317.371479749865 
5739.30527063282 
4902.186142502484 
3450.8769940683183 
2490.8291243352915 
49862.04179555641 
49862.0417954787 
49862.0417950457 
49862.04178699103 
49862.04167326534 
49862.040320569606 
49862.02691310003 
49861.91799608574 
49861.20517030955 
49857.492713240004 
49842.08269424582 
49789.986046946935 
49641.83217502359 
49279.97640977176 
48504.607745850066 
47026.49044369398 
44486.39393364594 
40507.443854781435 
34640.96498798362 
24264.083308106467 
17358.5933788356 
279461.8793571012 
279461.8793570235 
279461.8793557856 
279461.8793372116 
279461.8790641689 
279461.87559348403 
279461.83849036903 
279461.5098404617 
279459.1384539468 
279445.41382780287 
279382.2217009966 
279148.8796132501 
278439.3317970034 
276614.0191975185 
272556.5516168842 
264613.03534173744 
250715.12180082902 
228649.4719268838 
195575.19542652552 
135907.5158938488 
95962.7650883254 
1219210.7980764974 
1219210.7980764974 
1219210.7980742492 
1219210.798036052 
1219210.7974442807 
1219210.789502145 
1219210.6991034898 
1219209.8389933843 
1219203.110121558 
1219160.5482138349 
1218945.8287602814 
1218084.710432393 
1215296.9899719032 
1207790.9150471464 
1190599.3093380942 
1156349.2804569416 
1095929.385206148 
999613.314769279 
853515.1700187812 
585507.1335563703 
405241.28001401795 
3980047.7909811996 
3980047.7909811274 
3980047.790977147 
3980047.790905476 
3980047.7897411967 
3980047.773386251 
3980047.5772951855 
3980045.5979318293 
3980029.0436950726 
3979916.3086125236 
3979301.5853875834 
3976648.2193862544 
3967558.0174226053 
3942261.3733390025 
3883284.0367045356 
3765757.4474450382 
3560504.6734315953 
3238236.6810229067 
2748965.082854409 
1844629.6267801384 
1235658.233581232 
9229717.724477913 
9229717.724477697 
9229717.724471046 
9229717.72434665 
9229717.722256493 
9229717.691765701 
9229717.310132792 
9229713.265864823 
9229677.537100669 
9229418.974885505 
9227914.69310616 
9220998.550111394 
9196091.694877442 
9125128.155312344 
8960162.354123354 
8638436.680510141 
8099883.629054381 
7293906.595153074 
6098954.308515209 
3926693.8186450843 
2473506.690391823 
14355158.02846938 
14355158.028469019 
14355158.02845891 
14355158.02826012 
14355158.024824057 
14355157.973114852 
14355157.30271674 
14355149.910792416 
14355081.630351644 
14354562.440100914 
14351376.883529007 
14335936.09460231 
14277882.593136273 
14109566.714461368 
13726022.688316293 
13014066.322502248 
11915296.278369179 
10426285.42032285 
8366258.250638671 
4915746.673099383 
2683633.8223000276 
14834873.505244745 
14834873.505244168 
14834873.505229589 
14834873.504935836 
14834873.499741305 
14834873.419558242 
14834872.349993018 
14834860.173624568 
14834743.594133705 
14833821.16436399 
14827912.834412249 
14798002.20498017 
14681351.825166745 
14338268.912635418 
13579136.833732102 
12276530.906337114 
10483404.38416525 
8413925.65871574 
5903259.933831666 
2633319.0289684865 
802965.9326714535 
12789183.879441075 
12789183.879440209 
12789183.879420292 
12789183.879017208 
12789183.871763766 
12789183.757522933 
12789182.198980905 
12789164.00277911 
12788984.80046487 
12787521.727940142 
12777826.048241526 
12726999.510423068 
12522647.207057992 
11913786.70412506 
10607533.15347094 
8584535.436943898 
6196224.735183084 
3917060.591567618 
1662307.9354148058 
4373.127356130601 
-453346.3052066893 
13208580.281234011 
13208580.281232856 
13208580.281207677 
13208580.28069345 
13208580.271312166 
13208580.121289799 
13208578.039411146 
13208553.265213769 
13208304.023605477 
13206220.371008053 
13192051.28273305 
13115760.213956181 
12801540.858361552 
11854422.694320474 
9874578.600558192 
7136853.866563411 
4531900.260378771 
2427213.262339076 
859559.9390711775 
82119.04403664116 
-82160.59320500726 
13635000.729042087 
13635000.729040638 
13635000.729010988 
13635000.728399996 
13635000.717141194 
13635000.535156306 
13634997.979411056 
13634967.157956466 
13634652.425189994 
13631977.378622573 
13613454.995270658 
13511820.781912595 
13085833.44012313 
11789535.689150278 
9127795.316056922 
5808361.228211941 
3462528.1300881742 
1837637.5386733806 
652285.3176399497 
-204351.0383048532 
-768197.3712675889 
13236083.14691262 
13236083.146911098 