<?xml version="1.0"?>
<VTKFile type="UnstructuredGrid" version="0.1" byte_order="LittleEndian" compressor="vtkZLibDataCompressor">
<UnstructuredGrid>
<Piece NumberOfPoints="441" NumberOfCells="400">
<PointData>
<DataArray type="Float64" Name="displacement" NumberOfComponents="3" format="ascii" >
0.0 3.725142313731275e-10  0.
-1.512818092238525e-16 3.725141206287382e-10  0.
-6.132424852578854e-16 3.72513555359344e-10  0.
-2.141390843561968e-15 3.7251149479312805e-10  0.
-6.763512616504427e-15 3.725047626722241e-10  0.
-1.948049364855015e-14 3.7248473638030697e-10  0.
-5.1466080209159154e-14 3.724301566996114e-10  0.
-1.253776708111063e-13 3.722931440843404e-10  0.
-2.829676857627157e-13 3.7197482132699413e-10  0.
-5.941386304725263e-13 3.7128742100107766e-10  0.
-1.1648605930075932e-12 3.6990247530935676e-10  0.
-2.1394761751644533e-12 3.6729036696516535e-10  0.
-3.69168987387055e-12 3.6266480116838734e-10  0.
-5.999438020648653e-12 3.549543973296299e-10  0.
-9.202489201632083e-12 3.4282863261762643e-10  0.
-1.3348335943076571e-11 3.248020541410574e-10  0.
-1.8339960537213325e-11 2.994263229689069e-10  0.
-2.3913382671488037e-11 2.6556092936869076e-10  0.
-2.9759273164957117e-11 2.228696586037275e-10  0.
-3.761063693858083e-11 1.750233683964764e-10  0.
-7.970632385747267e-11 1.778837118501385e-10  0.
0.0 1.17737833157117e-09  0.
-3.434624490083757e-16 1.1773781145262175e-09  0.
-1.4549356813697504e-15 1.177376955455401e-09  0.
-5.314554695805479e-15 1.1773724914452443e-09  0.
-1.750213636268934e-14 1.1773571336610296e-09  0.
-5.2364123151093325e-14 1.1773092665083557e-09  0.
-1.431699248260927e-13 1.1771732446743134e-09  0.
-3.5966264003644616e-13 1.1768188457409357e-09  0.
-8.342693786172987e-13 1.1759678452664763e-09  0.
-1.7947524555120763e-12 1.1740757766859072e-09  0.
-3.5950260505135386e-12 1.170164541441667e-09  0.
-6.728421750277889e-12 1.162619582921519e-09  0.
-1.180253569294843e-11 1.1489933428525766e-09  0.
-1.945637508624523e-11 1.1258880070745386e-09  0.
-3.02133849730118e-11 1.0890112317741438e-09  0.
-4.428726890534656e-11 1.0334920167732131e-09  0.
-6.13887170613427e-11 9.544998586629986e-10  0.
-8.064426830547532e-11 8.481707652311185e-10  0.
-1.0136502481051024e-10 7.134334895225404e-10  0.
-1.3368634621932715e-10 5.659330412038752e-10  0.
-3.265722993479979e-10 5.985500050149582e-10  0.
0.0 6.2575680713774375e-09  0.
-1.308914170846623e-15 6.257567318253219e-09  0.
-5.80862829233154e-15 6.257563133919479e-09  0.
-2.223936347113871e-14 6.257546229639129e-09  0.
-7.649273165274965e-14 6.257485374770136e-09  0.
-2.380509221364146e-13 6.257287670210147e-09  0.
-6.742853250363815e-13 6.256704428170699e-09  0.
-1.7481294456750694e-12 6.255133011514706e-09  0.
-4.169754239616297e-12 6.25124546798936e-09  0.
-9.193821202997946e-12 6.242371261010382e-09  0.
-1.8817592021954535e-11 6.22359657447382e-09  0.
-3.5887922052989217e-11 6.186637592866473e-09  0.
-6.398801193030567e-11 6.11870207368158e-09  0.
-1.0697810857859592e-10 6.00173745941653e-09  0.
-1.6813638947923172e-10 5.81259735757536e-09  0.
-2.4898942679346933e-10 5.524641773004651e-09  0.
-3.481160177213886e-10 5.111060671648677e-09  0.
-4.606139601803754e-10 4.550048385213207e-09  0.
-5.827412101450398e-10 3.835879829332079e-09  0.
-7.743825843910977e-10 3.0575642064142737e-09  0.
-1.874464781748557e-09 3.279102369347393e-09  0.
0.0 2.9614658165098197e-08  0.
-4.472519115053323e-15 2.9614655754282274e-08  0.
-2.0734562029772254e-14 2.9614641847292734e-08  0.
-8.297512132754449e-14 2.961458308269089e-08  0.
-2.973286826325035e-13 2.9614362340088595e-08  0.
-9.60341994817578e-13 2.961361683434791e-08  0.
-2.8122408695177367e-12 2.9611339584386462e-08  0.
-7.509487495936795e-12 2.9605011025340817e-08  0.
-1.8384068066874126e-11 2.958892125397172e-08  0.
-4.146738928478395e-11 2.9551303814253078e-08  0.
-8.656790586857183e-11 2.947004662532862e-08  0.
-1.6793802182363974e-10 2.9307189423964464e-08  0.
-3.0384287907291367e-10 2.900319102089048e-08  0.
-5.143425279197169e-10 2.8472886888523407e-08  0.
-8.169441221685391e-10 2.7605777521311295e-08  0.
-1.220553882567001e-09 2.627327209486088e-08  0.
-1.7192023245475985e-09 2.4344492940859387e-08  0.
-2.2895409075302083e-09 2.171198938161979e-08  0.
-2.9183843466435196e-09 1.835252177422943e-08  0.
-3.9336483900608445e-09 1.4752169238064064e-08  0.
-9.232464766999944e-09 1.601445758549646e-08  0.
0.0 1.207500093482574e-07  0.
-1.3878475826419011e-14 1.207500023511944e-07  0.
-6.702703821702745e-14 1.2074996054842591e-07  0.
-2.795482113622348e-13 1.2074977639879232e-07  0.
-1.0407730377465573e-12 1.2074905693778227e-07  0.
-3.4794570555790167e-12 1.2074653924492144e-07  0.
-1.0505236488266956e-11 1.2073860240248726e-07  0.
-2.8811613908633943e-11 1.207159302621293e-07  0.
-7.218517358654891e-11 1.2065690247522334e-07  0.
-1.6608282575970036e-10 1.2051606962349595e-07  0.
-3.526056346279724e-10 1.2020660042519126e-07  0.
-6.937900135522794e-10 1.1957742111280693e-07  0.
-1.2701209666849456e-09 1.1838901691076907e-07  0.
-2.1710243142980683e-09 1.1629589272724396e-07  0.
-3.475793935532061e-09 1.128467352983466e-07  0.
-5.226738256590731e-09 1.0751331456059351e-07  0.
-7.401593648824807e-09 9.975513940842193e-08  0.
-9.9054858439849e-09 8.91295615262896e-08  0.
-1.271729374520231e-08 7.558580778568821e-08  0.
-1.740203194040591e-08 6.145646905169771e-08  0.
-3.934969492759294e-08 6.771578463160135e-08  0.
0.0 4.181452890392586e-07  0.
-3.9349292125784407e-14 4.181452705495795e-07  0.
-1.9736488159175708e-13 4.1814515644800544e-07  0.
-8.551664252431363e-13 4.181446342172792e-07  0.
-3.2979333257431226e-12 4.1814251923289297e-07  0.
-1.1376807938539608e-11 4.181348765645389e-07  0.
-3.529738551648613e-11 4.1811010546733713e-07  0.
-9.907412735021475e-11 4.180376704528246e-07  0.
-2.530596335850323e-10 4.178454255564865e-07  0.
-5.91505197128475e-10 4.173796412616994e-07  0.
-1.2717816829236825e-09 4.1634381857600846e-07  0.
-2.5272058994299377e-09 4.142190235713606e-07  0.
-4.661295058553468e-09 4.1018029333590636e-07  0.
-8.011340739971826e-09 4.030375999704413e-07  0.
-1.2875697412497405e-08 3.91239810504623e-07  0.
-1.9413472122013503e-08 3.729781204432362e-07  0.
-2.7545285017876052e-08 3.4641216781425395e-07  0.
-3.6948258591911326e-08 3.1007311076107035e-07  0.
-4.774156718744113e-08 2.6410421420958944e-07  0.
-6.63817737798105e-08 2.182489119637939e-07  0.
-1.434503112804482e-07 2.4496264077129956e-07  0.
0.0 1.209554795990777e-06  0.
-1.023759648246564e-13 1.209554751351997e-06  0.
-5.315874647576318e-13 1.2095544675759237e-06  0.
-2.3851566560947152e-12 1.2095531227215777e-06  0.
-9.498374789321523e-12 1.2095474956901932e-06  0.
-3.3702732029061276e-11 1.2095265704621317e-06  0.
-1.0707560302078923e-10 1.2094571044631473e-06  0.
-3.063681157186747e-10 1.2092500851910757e-06  0.
-7.942465228958268e-10 1.2086928580822233e-06  0.
-1.876766344109706e-09 1.2073298610329319e-06  0.
-4.0647963626769754e-09 1.2042823981983505e-06  0.
-8.11144650965234e-09 1.1980200869607306e-06  0.
-1.4985161688025768e-08 1.1861329121353045e-06  0.
-2.5741953889428208e-08 1.1651915472478618e-06  0.
-4.128641372703073e-08 1.1308032384891227e-06  0.
-6.206106756255723e-08 1.0779515633784622e-06  0.
-8.777364351905242e-08 1.0016696613685947e-06  0.
-1.1753408772026135e-07 8.983014739972145e-07  0.
-1.5265305460678541e-07 7.700416086119267e-07  0.
-2.158050198098377e-07 6.518210826000944e-07  0.
-4.4117993964385465e-07 7.485404970951265e-07  0.
0.0 2.867675730722993e-06  0.
-2.4507507473418057e-13 2.8676756321677343e-06  0.
-1.3132212795145012e-12 2.867674988471723e-06  0.
-6.081786438544603e-12 2.867671840259449e-06  0.
-2.493232107519832e-11 2.86765827530132e-06  0.
-9.071016198644418e-11 2.8676065337281215e-06  0.
-2.940854303692097e-10 2.867431247865268e-06  0.
-8.54290164471574e-10 2.8669011999405113e-06  0.
-2.23729339372843e-09 2.8654618923196996e-06  0.
-5.3154299218054765e-09 2.8619301011468513e-06  0.
-1.1526227003412087e-08 2.8540496347837058e-06  0.
-2.294255413780305e-08 2.837965518281355e-06  0.
-4.214393356288603e-08 2.8077676073583004e-06  0.
-7.180360285690638e-08 2.7553349217166268e-06  0.
-1.1401592240728754e-07 2.6707084216902874e-06  0.
-1.6952099482135547e-07 2.543114277292981e-06  0.
-2.3722564483626993e-07 2.3626736391343717e-06  0.
-3.152976277580231e-07 2.1238337653791746e-06  0.
-4.109278010903231e-07 1.839693647697428e-06  0.
-5.904868228876519e-07 1.615695395557002e-06  0.
-1.1276029262544034e-06 1.907211404359669e-06  0.
0.0 5.4774358494556345e-06  0.
-5.407582241381666e-13 5.477435650549012e-06  0.
-2.9808446683761504e-12 5.477434319330883e-06  0.
-1.4203394974521766e-11 5.477427621710287e-06  0.
-5.975924911346325e-11 5.477397995761986e-06  0.
-2.2226270635923034e-10 5.4772824430658365e-06  0.
-7.328914237949735e-10 5.476884320518831e-06  0.
-2.153019665020674e-09 5.47566781644424e-06  0.
-5.669320581773263e-09 5.472352613297253e-06  0.
-1.3467913339523261e-08 5.464243838550429e-06  0.
-2.9051166162713262e-08 5.446327820122525e-06  0.
-5.7257700089977795e-08 5.410343292184355e-06  0.
-1.0372799984546401e-07 5.344244229197343e-06  0.
-1.7372230150029324e-07 5.23254654168791e-06  0.
-2.704958829471463e-07 5.05789281611028e-06  0.
-3.938726620257199e-07 4.8037422852699335e-06  0.
-5.401428066924916e-07 4.458132686330007e-06  0.
-7.073048628686228e-07 4.022199175969056e-06  0.
-9.232043385563195e-07 3.5488641927371242e-06  0.
-1.3448875081678383e-06 3.299168250053039e-06  0.
-2.3629321943414203e-06 4.012260572161032e-06  0.
0.0 8.414608816397569e-06  0.
-1.1029530942439517e-12 8.414608448543085e-06  0.
-6.235520298934542e-12 8.41460593219021e-06  0.
-3.047483286893241e-11 8.414592948570367e-06  0.
-1.3121036032681165e-10 8.414534164211005e-06  0.
-4.974692103585532e-10 8.414300378756635e-06  0.
-1.6633137232213703e-09 8.413483682204305e-06  0.
-4.923632045753687e-09 8.410971355529247e-06  0.
-1.2977525307601995e-08 8.4041332477287e-06  0.
-3.065940586851185e-08 8.3875645149671e-06  0.
-6.536783553953859e-08 8.351592482154392e-06  0.
-1.2663174913844693e-07 8.281156575254033e-06  0.
-2.2436489405097465e-07 8.155980466623869e-06  0.
-3.659586558947717e-07 7.952831803025692e-06  0.
-5.531265151088313e-07 7.649927325502236e-06  0.
-7.803007559955576e-07 7.2326567602624905e-06  0.
-1.037572617285539e-06 6.7008576128994775e-06  0.
-1.3282743077022874e-06 6.089380598463079e-06  0.
-1.7334402723350877e-06 5.555794468010123e-06  0.
-2.5392581863062373e-06 5.609527867172099e-06  0.
-4.043375738103123e-06 6.978564081590712e-06  0.
0.0 1.0825580892844548e-05  0.
-2.0906355379638637e-12 1.0825580264795663e-05  0.
-1.2087851321764893e-11 1.0825575884249954e-05  0.
-6.042124380171513e-11 1.0825552771625272e-05  0.
-2.6550118146376154e-10 1.082544595411117e-05  0.
-1.023529881076682e-09 1.0825013896819719e-05  0.
-3.461012651865145e-09 1.0823487467082832e-05  0.
-1.0291079137146272e-08 1.0818774695994372e-05  0.
-2.704284434006153e-08 1.080601654203856e-05  0.
-6.321887724493928e-08 1.0775565733840238e-05  0.
-1.3242326532208653e-07 1.0711074671690827e-05  0.
-2.5038152371072307e-07 1.0589075797486346e-05  0.
-4.3050324765517683e-07 1.0381555819566975e-05  0.
-6.780566376858071e-07 1.0062153758777742e-05  0.
-9.859509393243837e-07 9.614600258148184e-06  0.
-1.335257662480681e-06 9.041529459311904e-06  0.
-1.7080108651373268e-06 8.377146333336402e-06  0.
-2.1302996569017883e-06 7.734880916981729e-06  0.
-2.7809482330177706e-06 7.4650886251601956e-06  0.
-4.026514263323103e-06 8.293606899432023e-06  0.
-5.769748829941761e-06 1.0269848044927579e-05  0.
0.0 1.2864536777165842e-05  0.
-3.702689463366665e-12 1.286453578168388e-05  0.
-2.1839046204126475e-11 1.2864528717943639e-05  0.
-1.1136005088254746e-10 1.2864490706661097e-05  0.
-4.982299732345889e-10 1.2864311821395826e-05  0.
-1.9488117568627153e-09 1.2863577518229406e-05  0.
-6.650600966350486e-09 1.2860959191767904e-05  0.
-1.9815802312018546e-08 1.2852864350928843e-05  0.
-5.174619850286111e-08 1.2831139734447647e-05  0.
-1.191838817200511e-07 1.2780311402264555e-05  0.
-2.43974486594967e-07 1.267599248770464e-05  0.
-4.474808389875941e-07 1.2486908486242432e-05  0.
-7.416684114302481e-07 1.2182101369513828e-05  0.
-1.1206606345825285e-06 1.1741857279504832e-05  0.
-1.5585358196451803e-06 1.1168396830911649e-05  0.
-2.019294706041655e-06 1.0493692944718349e-05  0.
-2.4881545645005673e-06 9.802036748742826e-06  0.
-3.0528300002659664e-06 9.325852999797772e-06  0.
-4.004783882295964e-06 9.637314216250817e-06  0.
-5.590683200009959e-06 1.134199124498233e-05  0.
-7.2935132200556465e-06 1.3376526913174805e-05  0.
0.0 1.5323128101621266e-05  0.
-6.141075441250594e-12 1.5323126641594925e-05  0.
-3.6861096849818176e-11 1.5323116122911477e-05  0.
-1.912854686302292e-10 1.5323058527666934e-05  0.
-8.694959655776033e-10 1.532278311180011e-05  0.
-3.444315896969163e-09 1.5321637874126862e-05  0.
-1.1843104886287421e-08 1.5317522777410804e-05  0.
-3.5297762537957977e-08 1.5304803722997208e-05  0.
-9.138017711143589e-08 1.5271042896119623e-05  0.
-2.0665593474476353e-07 1.5193917579527645e-05  0.
-4.116182371899201e-07 1.504142986112979e-05  0.
-7.288400889233581e-07 1.4778568552582135e-05  0.
-1.1590620893364396e-06 1.4380208265666575e-05  0.
-1.6746785123769746e-06 1.3844022826436266e-05  0.
-2.2272800904143065e-06 1.3196424529625076e-05  0.
-2.7778534365651838e-06 1.249652091980387e-05  0.
-3.353478976896534e-06 1.1881889896975711e-05  0.
-4.150468883915483e-06 1.1723443581707401e-05  0.
-5.490904665561918e-06 1.267431984336187e-05  0.
-7.239793438593011e-06 1.4659677914022023e-05  0.
-8.8129754503346e-06 1.6114638553207535e-05  0.
0.0 1.7880688991081187e-05  0.
-9.547511172130136e-12 1.7880687017303054e-05  0.
-5.818475679711965e-11 1.7880672607767993e-05  0.
-3.0656813897649194e-10 1.788059250634747e-05  0.
-1.412794012495202e-09 1.7880204106675803e-05  0.
-5.657606169278076e-09 1.7878570940258505e-05  0.
-1.9572075366761798e-08 1.7872665432614153e-05  0.
-5.8274081689590293e-08 1.7854438253076277e-05  0.
-1.4930880953134808e-07 1.7806662176191672e-05  0.
-3.3068562320939423e-07 1.770041772884769e-05  0.
-6.386995934086676e-07 1.7499108069426075e-05  0.
-1.0881834299879087e-06 1.7171204550558236e-05  0.
-1.657156568540389e-06 1.670646736714912e-05  0.
-2.292685736248991e-06 1.612325499807464e-05  0.
-2.9399424260474554e-06 1.5461606039381903e-05  0.
-3.59195047531734e-06 1.4796250006714999e-05  0.
-4.3731147515979065e-06 1.4334273840304543e-05  0.
-5.567263925354004e-06 1.4588259947758775e-05  0.
-7.328959979778686e-06 1.598722380713088e-05  0.
-9.074336091391046e-06 1.7550707156823614e-05  0.
-1.0477308445318045e-05 1.851445445992381e-05  0.
0.0 2.0088514853041342e-05  0.
-1.3949009623817171e-11 2.008851239125538e-05  0.
-8.611713005806059e-11 2.0088494216203153e-05  0.
-4.5966399091653394e-10 2.0088391882140302e-05  0.
-2.143274669796423e-09 2.0087889814129655e-05  0.
-8.662016020088781e-09 2.008575882757335e-05  0.
-3.0110694574306324e-08 2.0078014484220497e-05  0.
-8.94794149278666e-08 2.0054165282429864e-05  0.
-2.266847063992384e-07 1.999248471219722e-05  0.
-4.908839096584095e-07 1.9859214013727544e-05  0.
-9.171884430870351e-07 1.96182220171949e-05  0.
-1.5009944199504382e-06 1.924924955807984e-05  0.
-2.191877797872893e-06 1.8760287257970195e-05  0.
-2.923974540655228e-06 1.8180872496723835e-05  0.
-3.6737814115226434e-06 1.7546945664359805e-05  0.
-4.507774505770716e-06 1.694995422528346e-05  0.
-5.645447757813685e-06 1.6716799900650597e-05  0.
-7.3181550060870616e-06 1.741375195736551e-05  0.
-9.27317137477171e-06 1.892057537138683e-05  0.
-1.0837219713750103e-05 1.9916175718145855e-05  0.
-1.2109428936768534e-05 2.1041250956706568e-05  0.
0.0 2.2532540180689974e-05  0.
-1.918380446631359e-11 2.2532537368526247e-05  0.
-1.1972595520115097e-10 2.2532516409946876e-05  0.
-6.46030828757016e-10 2.2532397129773182e-05  0.
-3.0419241383904778e-09 2.2531806118476592e-05  0.
-1.2388289150912041e-08 2.252927788093291e-05  0.
-4.322923832040899e-08 2.2520052583083807e-05  0.
-1.2816487339522245e-07 2.2491713714157468e-05  0.
-3.210283736106227e-07 2.2419378414703903e-05  0.
-6.795460241980106e-07 2.2267551512600222e-05  0.
-1.2273392804184149e-06 2.2006114648362326e-05  0.
-1.930054317635628e-06 2.163105521182284e-05  0.
-2.7173400910316e-06 2.1163302011515647e-05  0.
-3.5404016000726508e-06 2.0624886208883378e-05  0.
-4.442571356274195e-06 2.0043068623132632e-05  0.
-5.571168815372731e-06 1.9567010130904678e-05  0.
-7.117288264382899e-06 1.9659690527014335e-05  0.
-9.079202822208251e-06 2.068825339412889e-05  0.
-1.0805687221839088e-05 2.184782338832471e-05  0.
-1.2123854661009442e-05 2.2424120315729623e-05  0.
-1.3473423159614528e-05 2.3779006513451542e-05  0.
0.0 2.4947230831100985e-05  0.
-2.48542136415829e-11 2.494722792716989e-05  0.
-1.5648144313226173e-10 2.494720611786658e-05  0.
-8.518098938587756e-10 2.494708090715377e-05  0.
-4.042816330427407e-09 2.494645550346352e-05  0.
-1.65662254485855e-08 2.4943763006232525e-05  0.
-5.7979252106906914e-08 2.493390659004193e-05  0.
-1.714842195159906e-07 2.4903701674675372e-05  0.
-4.250153311138915e-07 2.4827521527193486e-05  0.
-8.804839849218827e-07 2.4671930466108294e-05  0.
-1.539095134674539e-06 2.4416642423379503e-05  0.
-2.3322489377711873e-06 2.40734070367964e-05  0.
-3.1949051718410143e-06 2.3664988346340034e-05  0.
-4.1327685226110915e-06 2.319073558594452e-05  0.
-5.247474206276311e-06 2.268819743924478e-05  0.
-6.7004335531204755e-06 2.2407395174702552e-05  0.
-8.48581958619719e-06 2.2823028431231346e-05  0.
-1.0303549662766892e-05 2.3872775634902698e-05  0.
-1.1689690971214042e-05 2.4448013899159205e-05  0.
-1.2975008887581248e-05 2.4880451019104062e-05  0.
-1.4294327182501397e-05 2.5874129569031272e-05  0.
0.0 2.7266299663499895e-05  0.
-3.0372805982280523e-11 2.7266297006266945e-05  0.
-1.9252450577055238e-10 2.7266276932852673e-05  0.
-1.0551365208526424e-09 2.7266160921083614e-05  0.
-5.038585458395004e-09 2.7265577920995575e-05  0.
-2.0744634444768554e-08 2.7263055884664538e-05  0.
-7.27620061978569e-08 2.7253802080905743e-05  0.
-2.1473991241137738e-07 2.7225507152362533e-05  0.
-5.274024378033971e-07 2.7154873570967934e-05  0.
-1.07217220599289e-06 2.7014022295800496e-05  0.
-1.8201824707293808e-06 2.679293733076629e-05  0.
-2.671533403659484e-06 2.6513160526177286e-05  0.
-3.5990974935489893e-06 2.6189884400780928e-05  0.
-4.68816080394989e-06 2.5800037104990894e-05  0.
-6.025902984776983e-06 2.541240664953491e-05  0.
-7.671952269401394e-06 2.5354321349036138e-05  0.
-9.419435087464584e-06 2.5910189668643558e-05  0.
-1.087692606660548e-05 2.6605914845469735e-05  0.
-1.2262395336226863e-05 2.6819426705333636e-05  0.
-1.3639579620221707e-05 2.7385083343042967e-05  0.
-1.480189118179965e-05 2.7800914279969795e-05  0.
0.0 2.9707322933440445e-05  0.
-3.503187937926558e-11 2.970732089465792e-05  0.
-2.231260722151239e-10 2.970730542768991e-05  0.
-1.2287465792052056e-09 2.970721560632496e-05  0.
-5.893192093558349e-09 2.9706762212934062e-05  0.
-2.4344810325805006e-08 2.9704793928447492e-05  0.
-8.551881491792598e-08 2.969755947780969e-05  0.
-2.519584844980912e-07 2.9675474647664413e-05  0.
-6.14515873862224e-07 2.962076526919272e-05  0.
-1.2310361632514556e-06 2.951366995119799e-05  0.
-2.041896840399888e-06 2.9351493048336144e-05  0.
-2.92440936869898e-06 2.915630253598048e-05  0.
-3.910749253877957e-06 2.8933859557426923e-05  0.
-5.163883193660187e-06 2.8653213930494926e-05  0.
-6.663258005473528e-06 2.8401330220408467e-05  0.
-8.294789039427155e-06 2.848550267891569e-05  0.
-9.904679894128363e-06 2.89464780069329e-05  0.
-1.1270123608878516e-05 2.9227315634456885e-05  0.
-1.2754998084360718e-05 2.9372408675875973e-05  0.
-1.4055476634152552e-05 2.9857777579082407e-05  0.
-1.5363290252557488e-05 3.0035573127891926e-05  0.
0.0 3.205474903916868e-05  0.
-3.815562501687856e-11 3.205474792953479e-05  0.
-2.4372039586706257e-10 3.20547394907718e-05  0.
-1.3460229794609567e-09 3.205469034772215e-05  0.
-6.472458793694887e-09 3.205444165172621e-05  0.
-2.6791403865841444e-08 3.205335983280703e-05  0.
-9.419657166064484e-08 3.204937989636898e-05  0.
-2.772233740103011e-07 3.203724356951391e-05  0.
-6.731826637030456e-07 3.200732486382841e-05  0.
-1.3360024351639913e-06 3.1949445541891685e-05  0.
-2.1830013667326803e-06 3.1863839553654986e-05  0.
-3.0787493212553634e-06 3.176421653257372e-05  0.
-4.1095384239849845e-06 3.1651099987797026e-05  0.
-5.490463808862033e-06 3.150369909326624e-05  0.
-7.064990128768209e-06 3.138477255256718e-05  0.
-8.585295792899744e-06 3.147069183892105e-05  0.
-1.0154935024848813e-05 3.170543289121609e-05  0.
-1.1627579198886497e-05 3.180028796637449e-05  0.
-1.299478082852242e-05 3.1909053226816505e-05  0.
-1.4324937749738362e-05 3.205976326000238e-05  0.
-1.5568252795709717e-05 3.220806252317742e-05  0.
0.0 3.445e-05  0.
-3.92565373454063e-11 3.445e-05  0.
-2.509918028946434e-10 3.445e-05  0.
-1.3875067506152285e-09 3.445e-05  0.
-6.677701364451668e-09 3.445e-05  0.
-2.7659363332237063e-08 3.445e-05  0.
-9.727654897558815e-08 3.445e-05  0.
-2.8618094144545734e-07 3.445e-05  0.
-6.938983895859164e-07 3.445e-05  0.
-1.3727015429523997e-06 3.445e-05  0.
-2.2313561442622855e-06 3.445e-05  0.
-3.130492825428498e-06 3.445e-05  0.
-4.178211040727061e-06 3.445e-05  0.
-5.607076381664998e-06 3.445e-05  0.
-7.1991140865410405e-06 3.445e-05  0.
-8.66501338057122e-06 3.445e-05  0.
-1.0247550250576291e-05 3.445e-05  0.
-1.1757297395725265e-05 3.445e-05  0.
-1.3024238079743729e-05 3.445e-05  0.
-1.4479488743076836e-05 3.445e-05  0.
-1.548642937056914e-05 3.445e-05  0.
</DataArray>
<DataArray type="Float64" Name="sigma_xx" NumberOfComponents="1" format="ascii" >
4507.2397185874615 
4507.2359339815 
4507.218035632031 
4507.158784194941 
4506.98259327753 
4506.502991219462 
4505.300288160095 
4502.507382531105 
4496.473753667905 
4484.297238871447 
4461.2565485935265 
4420.242908753645 
4351.362744547947 
4241.936732846118 
4077.1199279310263 
3841.280010008495 
3520.030729997624 
3101.573215413821 
2562.98526294385 
1654.8692670592663 
1050.509441669067 
16478.21834738216 
16478.208815628997 
16478.16231806209 
16478.002231207203 
16477.507874884664 
16476.11461464415 
16472.508248577262 
16463.88934592457 
16444.779383564804 
16405.299754163043 
16329.00787008617 
16190.624405981729 
15954.286153752048 
15573.20327159883 
14991.647287837524 
14149.907399105261 
12991.99228085301 
11471.777631411045 
9511.549103455305 
6405.83191483801 
4404.619379477779 
79625.96094832628 
79625.9258675713 
79625.74948577325 
79625.11948604863 
79623.10691952964 
79617.26333102211 
79601.7424857076 
79563.82141328929 
79478.15580809923 
79298.3837920813 
78946.44570521633 
78301.24726082297 
77189.79855369788 
75385.19564054822 
72616.01965268535 
68590.27201251143 
63032.42866012303 
55709.65750198163 
46208.33667155209 
31140.2463530258 
21444.736484710338 
320603.5474648593 
320603.43090453686 
320602.8286795281 
320600.60685452627 
320593.2986568626 
320571.5426803617 
320512.54612360237 
320365.95620135154 
320030.38252559333 
319319.04692585603 
317916.3321504196 
315332.2746941855 
310868.1851220289 
303611.01646000636 
292474.163867945 
276295.1652747147 
253979.6763930179 
224567.79222705384 
186117.35271541192 
124380.58349879817 
84501.75150910285 
1088156.456714517 
1088156.103589316 
1088154.2318487256 
1088147.1172048347 
1088123.0925973759 
1088050.0140095418 
1087848.471750696 
1087341.436162106 
1086171.0266157035 
1083678.542999977 
1078756.8102232271 
1069703.15167634 
1054120.969752439 
1028928.713404045 
990527.1518349353 
935143.3171465525 
859279.5588842735 
759699.2142651912 
628581.0760474795 
415423.1332056001 
277260.25150278094 
3050654.207243674 
3050653.226791432 
3050647.904901398 
3050627.1183784893 
3050555.278340607 
3050332.783622913 
3049711.3579091923 
3048136.3290260313 
3044491.477116278 
3036745.249677435 
3021543.1142120957 
2993850.65664979 
2946797.961915017 
2871878.0001332783 
2759584.5349127115 
2600438.9360984582 
2386015.221450668 
2107695.8855239544 
1738809.3971677974 
1131571.319699531 
736892.3081074225 
6868135.795773631 
6868133.293802805 
6868119.413211104 
6868063.851904422 
6867867.907045757 
6867252.225013551 
6865518.340378343 
6861114.526652104 
6850963.553110229 
6829598.538309504 
6788300.576844406 
6714578.61495973 
6592388.6561249485 
6403344.501149491 
6128848.315794502 
5752558.523484308 
5261528.081898993 
4638346.031621916 
3806724.443920385 
2421656.4413182447 
1520638.7240011822 
11976832.382356023 
11976826.503321981 
11976793.233683221 
11976657.118683703 
11976168.712745905 
11974617.133485353 
11970230.424350336 
11959126.814910498 
11933807.626593959 
11881476.591176309 
11782862.633889131 
11612481.524757963 
11341092.047913974 
10940342.452468848 
10388396.568126662 
9674038.151671585 
8793641.66885875 
7720126.117153589 
6272163.865249223 
3843945.6571289315 
2272130.1843391694 
15574631.876093576 
15574619.121533187 
15574545.64140794 
15574239.141875628 
15573123.136496114 
15569549.772542134 
15559448.326440457 
15534102.973069372 
15477325.260266913 
15363100.39081212 
15155579.574260237 
14813373.374714088 
14298705.513803594 
13589484.295599721 
12689395.341736121 
11629099.663277457 
10444620.688502902 
9090013.686075276 
7211115.037300644 
4107287.913439559 
2147391.749353647 
15015224.300459601 
15015198.62811435 
15015048.327769333 
15014410.539252713 
15012059.129641661 
15004489.481344465 
14983165.810479736 
14930383.262771243 
14814980.835055139 
14590967.95027249 
14203097.335213024 
13601780.879546894 
12764953.10658186 
11718107.099493086 
10540983.265420455 
9347194.45724595 
8214491.554918854 
7008406.275054473 
5171614.260587471 
2423311.276436238 
852488.1472691348 
12487690.398507819 
12487642.200745251 
12487355.896928122 
12486122.217016777 
12481524.643484835 
12466671.54693159 
12425083.501429621 
12323935.996772893 
12109409.232271437 
11711045.157567967 
11061486.090609591 
10130345.191282319 
8959293.738556318 
7676012.047554456 
6468272.793415874 
5506199.464244022 
4789757.068641396 
3919896.62099817 
2239002.1144280685 
412172.09414606297 
-289975.4835193252 
12621655.992794009 
12621571.332797758 
12621061.856076572 
12618836.436335647 
12610465.714672329 
12583366.365858182 
12508100.579315033 
12328871.049861168 
11962310.216409232 
11317046.559148004 
10339334.631640373 
9068876.178504571 
7668362.251433596 
6392537.52835596 
5482053.033086479 
5005184.661622467 
4641413.92967408 
3608300.3449844085 
1542867.2239795304 
17241.969333447803 
-249930.01176521846 
14080398.647569105 
14080259.30576776 
14079411.083836332 
14075661.60635182 
14061447.124424517 
14015389.389652897 
13888697.539540373 
13594199.242200667 
13016793.00125219 
12062803.874031635 
10740236.628488693 
9220938.527026989 
7814514.185731141 
6834843.910838719 
6400306.016300571 
6239840.698175998 
5604485.911115614 
3682245.4699475206 
1141422.4987600527 
-148744.53251409734 
-260151.6435082637 
13374943.329210922 
13374727.968833786 
13373403.809379555 
13367489.744165402 
13344920.29111477 
13271790.369612854 
13072737.918432815 
12621973.854515996 
11779053.410384865 
10485464.303757504 
8873415.85062189 
7285431.31007236 
6121352.45601359 
5569563.025209447 
5411686.214068217 
4953823.494004116 
3351910.4369639033 
634690.9516954105 
-1183360.6765737103 
-907277.5228116469 
-349827.7519122595 
13055408.629030768 
13055095.481796801 
13053153.431837283 
13044402.684618697 
13010822.05472067 
12902070.705234272 
12609215.19777092 
11963668.710147526 
10816770.799710233 
9199264.998919977 
7424826.077348348 
5978503.644053349 
5191377.457930252 
4906256.218506913 
4502116.731254343 
3200127.905575617 
705807.9321820068 
-1591241.4556972785 
-1672631.6280513597 
-237969.3514616136 
502034.3449523601 
13637254.646456165 
13636825.75766091 
13634146.635336969 
13621985.19280348 
13575103.731710395 
13423406.875672683 
13019102.076651575 
12151216.963320933 
10689320.9259591 
8814263.01863569 
7049902.919388069 
5903610.376216678 
5417534.699921858 
5014272.231680039 
3903740.011637874 
1856669.0490488978 
-471767.58768235386 
-1175958.80415039 
-141349.10364003375 
265278.1022319451 
34414.2612186661 
13285653.351983313 
13285099.395139864 
13281618.64783629 
13265723.523009133 
13204226.749373198 
13005430.811948303 
12480528.52039486 
11381164.74321421 
9624107.530952144 
7590898.331195323 
6001251.908072163 
5192466.43905193 
4728020.150593659 
3841456.0846332954 
2059846.2564898336 
7950.298891840153 
-1055603.595621724 
-593694.0095252196 
145883.93822236676 
-242195.06025111236 
-756812.449993751 
13359688.150754696 
13359012.809368731 
13354750.032117078 
13335193.527088918 
13259321.877139933 
13014281.257502848 
12372332.670015376 
11056002.132165926 
9050683.656420968 
6960905.673283577 
5650924.496937323 
5097439.67498403 
4314828.770416096 
2839260.207040375 
983042.04013229 
-368094.70650380413 
-225714.12087939976 
36836.631420209334 
-91552.98315214533 
2559.7050608429854 
-30127.206226423383 
13439413.300158182 
13438635.665450089 
13433711.324194808 
13411045.478764366 
13322939.79205215 
13038598.25270547 
12298095.83182679 
10804291.889264721 
8615612.001416257 
6541274.903569827 
5526364.223601587 
5096370.133463393 
3790706.8543325947 
1902044.8988975112 
668769.5144714486 
24104.7787102882 
246617.44732193722 
155497.87200500368 
-249172.86939368446 
-185474.85217391333 
-293923.4984924451 
13310600.477256963 
13309754.322526459 
13304385.70935595 
13279626.43133939 
13183272.04405298 
12872458.552628182 
12065996.536166526 
10455841.22229979 
8156328.065724218 
6120797.197369865 
5325806.132198673 
4921216.076564833 
3142953.7686701645 
1091101.9126000535 
684240.7485726033 
300427.135789405 
-193924.13597907295 
79806.30465548896 
-138974.42631543544 
-160868.61878689873 
169551.71182295564 
13445134.431411527 
13444264.154951869 
13438738.940026935 
13413240.795019317 
13313972.975079082 