<?xml version="1.0"?>
<VTKFile type="UnstructuredGrid" version="0.1" byte_order="LittleEndian" compressor="vtkZLibDataCompressor">
<UnstructuredGrid>
<Piece NumberOfPoints="441" NumberOfCells="400">
<PointData>
<DataArray type="Float64" Name="displacement" NumberOfComponents="3" format="ascii" >
0.0 2.0640002450088892e-11  0.
-4.646837583424342e-18 2.0639998923743384e-11  0.
-2.0377834921077372e-17 2.063997964620529e-11  0.
-7.677137447630485e-17 2.0639903761186326e-11  0.
-2.587005825855726e-16 2.063963849982588e-11  0.
-7.868219116348502e-16 2.063880318928083e-11  0.
-2.1768512720171533e-15 2.063641446098282e-11  0.
-5.51521443778972e-15 2.063016819762175e-11  0.
-1.2870907341147582e-14 2.0615142114051882e-11  0.
-2.78104374213652e-14 2.0581713108932244e-11  0.
-5.5882335998011585e-14 2.051261758396822e-11  0.
-1.0482866741212791e-13 2.0379403674350506e-11  0.
-1.8418714800942776e-13 2.0139013210050038e-11  0.
-3.039884737865506e-13 1.9731777330482527e-11  0.
-4.724320760174146e-13 1.9082469322098328e-11  0.
-6.928252405230334e-13 1.810592840855696e-11  0.
-9.605096853264692e-13 1.6717955420757733e-11  0.
-1.2612722545818916e-12 1.485087968006678e-11  0.
-1.5775997616455217e-12 1.247852333199617e-11  0.
-2.006098973548265e-12 9.766948350370766e-12  0.
-4.56375090546253e-12 9.879220687723087e-12  0.
0.0 8.122786832327697e-11  0.
-1.155335182504228e-17 8.122786074450432e-11  0.
-5.3971099579566816e-17 8.122781664288872e-11  0.
-2.1607125035161875e-16 8.122762997109025e-11  0.
-7.697424221169407e-16 8.122693272021073e-11  0.
-2.4616677515037338e-15 8.12246025702076e-11  0.
-7.122531852805345e-15 8.121757784134331e-11  0.
-1.877649932912183e-14 8.119833231181088e-11  0.
-4.538590843862275e-14 8.115009573940086e-11  0.
-1.011464144880086e-13 8.103884354428788e-11  0.
-2.0883952281565407e-13 8.080151441519463e-11  0.
-4.0116945055461615e-13 8.033115056558668e-11  0.
-7.19587708825133e-13 7.94617206676221e-11  0.
-1.2090555553837068e-12 7.795787731306194e-11  0.
-1.9080863232461785e-12 7.55167466800604e-11  0.
-2.8349755816422344e-12 7.178875096644114e-11  0.
-3.973508428195932e-12 6.64213187974355e-11  0.
-5.2647874378499365e-12 5.912486865507567e-11  0.
-6.644585747955508e-12 4.9786891114790987e-11  0.
-8.692660922828249e-12 3.928947180337734e-11  0.
-2.2411567369749727e-11 4.108988716353979e-11  0.
0.0 5.493078265082879e-10  0.
-4.7789139272334206e-17 5.493077977363076e-10  0.
-2.379282918111868e-16 5.493076209991084e-10  0.
-1.0150597859691038e-15 5.493068221089513e-10  0.
-3.83462633468504e-15 5.493036463456141e-10  0.
-1.2933129771386543e-14 5.492924112331949e-10  0.
-3.92417158860808e-14 5.492567623982291e-10  0.
-1.0790821881189949e-13 5.491545396349966e-10  0.
-2.7071970438044864e-13 5.488877864845542e-10  0.
-6.233795405465546e-13 5.48250303148847e-10  0.
-1.324445186048993e-12 5.468473738359018e-10  0.
-2.608388685046178e-12 5.439902405707217e-10  0.
-4.780870023372415e-12 5.385827263555568e-10  0.
-8.183791992809892e-12 5.290362323988307e-10  0.
-1.3122628820460937e-11 5.132652372293037e-10  0.
-1.9762071250204233e-11 4.888173200739637e-10  0.
-2.8012968049336473e-11 4.531717277608765e-10  0.
-3.746373988289317e-11 4.0421044023680386e-10  0.
-4.765603485383912e-11 3.410842193673508e-10  0.
-6.284773457872981e-11 2.700903473590056e-10  0.
-1.6075669287213413e-10 2.853312961044018e-10  0.
0.0 3.3037376733499394e-09  0.
-1.751686235533758e-16 3.3037375747393716e-09  0.
-9.256306466886206e-16 3.303736936393795e-09  0.
-4.19614707628007e-15 3.3037338664057507e-09  0.
-1.6785459284791015e-14 3.3037209098612226e-09  0.
-5.965953846882152e-14 3.3036724664673983e-09  0.
-1.8978225162036943e-13 3.3035108444185944e-09  0.
-5.44309883308269e-13 3.303026113888799e-09  0.
-1.4173550969361787e-12 3.3017098013078467e-09  0.
-3.3721092143319936e-12 3.2984518514083607e-09  0.
-7.371888186736932e-12 3.2910584581581738e-09  0.
-1.4882579524799897e-11 3.275593651868382e-09  0.
-2.7868104337801247e-11 3.245639161670881e-09  0.
-4.858779954843797e-11 3.1916933953688685e-09  0.
-7.913785683497211e-11 3.1010435412917984e-09  0.
-1.207609103846194e-10 2.9584760409440038e-09  0.
-1.730779391340277e-10 2.7480766184712066e-09  0.
-2.3361309281915405e-10 2.456211870546975e-09  0.
-2.9980810997964813e-10 2.077450874799092e-09  0.
-4.008837446870366e-10 1.6545808335422224e-09  0.
-1.0012345486252474e-09 1.7642648105838623e-09  0.
0.0 1.7245375857439035e-08  0.
-5.763804706929389e-16 1.7245375554830248e-08  0.
-3.2184678038569406e-15 1.724537349901215e-08  0.
-1.544573078668004e-14 1.7245363026080776e-08  0.
-6.524306322408376e-14 1.724531627320549e-08  0.
-2.4387420479283356e-13 1.7245132035625672e-08  0.
-8.120413897927541e-13 1.72444871534144e-08  0.
-2.425937433128824e-12 1.7242467901721652e-08  0.
-6.548707251005494e-12 1.7236770963996835e-08  0.
-1.6079749327328007e-11 1.7222189224868657e-08  0.
-3.6129864679725924e-11 1.7188115363186663e-08  0.
-7.468742236674782e-11 1.711501381723367e-08  0.
-1.4272139396817135e-10 1.6970303168684838e-08  0.
-2.5316713744990324e-10 1.670480353217364e-08  0.
-4.1840296021093175e-10 1.6251587978702174e-08  0.
-6.463060745776242e-10 1.5529322663352797e-08  0.
-9.35755720434365e-10 1.44516384519613e-08  0.
-1.2739267454619872e-09 1.2943453347943879e-08  0.
-1.6495304904582472e-09 1.0976591907299308e-08  0.
-2.2388663775550466e-09 8.80822236908199e-09  0.
-5.432065073819614e-09 9.499391865867327e-09  0.
0.0 7.717269848680126e-08  0.
-1.716074034297463e-15 7.717269764957648e-08  0.
-1.0077829279737343e-14 7.717269170518102e-08  0.
-5.096860977140054e-14 7.717265978992979e-08  0.
-2.2650091229317934e-13 7.717250973463511e-08  0.
-8.87672662681003e-13 7.717188880453991e-08  0.
-3.085278182218654e-12 7.716961624996021e-08  0.
-9.5759990091679e-12 7.716221091013052e-08  0.
-2.673039703788065e-11 7.714057235138716e-08  0.
-6.757102665078144e-11 7.708347130731215e-08  0.
-1.5566736850234415e-10 7.694649297389834e-08  0.
-3.2871638823482736e-10 7.664597698868063e-08  0.
-6.395197008783808e-10 7.603975821318113e-08  0.
-1.1515489879351893e-09 7.490989006232693e-08  0.
-1.926883636685046e-09 7.295593046720073e-08  0.
-3.006936873974218e-09 6.980867966965452e-08  0.
-4.390161914034725e-09 6.50720368267111e-08  0.
-6.019963187081676e-09 5.8399520349336484e-08  0.
-7.862285919020273e-09 4.968098204735217e-08  0.
-1.0844783679467423e-08 4.0273339545382986e-08  0.
-2.53951771957029e-08 4.405004987858661e-08  0.
0.0 2.9183192451993167e-07  0.
-4.654256814961216e-15 2.918319224175781e-07  0.
-2.860832595279584e-14 2.9183190688319624e-07  0.
-1.51756130946851e-13 2.918318194256229e-07  0.
-7.065644981314332e-13 2.918313883681731e-07  0.
-2.8928106043675617e-12 2.918295229988119e-07  0.
-1.0459469246933927e-11 2.9182241215597915e-07  0.
-3.360881384740906e-11 2.917983970997377e-07  0.
-9.665978465860058e-11 2.917260340489464e-07  0.
-2.505954682630983e-10 2.915300768603292e-07  0.
-5.896258076419277e-10 2.91049821753785e-07  0.
-1.2668413034524026e-09 2.8997770678142685e-07  0.
-2.4994242134954303e-09 2.8778480183511186e-07  0.
-4.550826819694194e-09 2.836534846548416e-07  0.
-7.681152633847513e-09 2.7645056711706886e-07  0.
-1.2066699713581252e-08 2.647792528733351e-07  0.
-1.770950951676867e-08 2.471391145909796e-07  0.
-2.4399085576037792e-08 2.2223100493108327e-07  0.
-3.211586385207242e-08 1.898043762700698e-07  0.
-4.506520020957519e-08 1.5608013303209044e-07  0.
-1.0100954097615489e-07 1.737629681416304e-07  0.
0.0 9.165837368394973e-07  0.
-1.1561494026552325e-14 9.165837320253946e-07  0.
-7.403772814454891e-14 9.165836951548834e-07  0.
-4.09998771450783e-13 9.165834785542587e-07  0.
-1.9914376123986757e-12 9.165823645864883e-07  0.
-8.485051403291792e-12 9.165773445686418e-07  0.
-3.1798382473532995e-11 9.16557492781175e-07  0.
-1.0537039745070362e-10 9.164883016797877e-07  0.
-3.1088003381459545e-10 9.162743679573741e-07  0.
-8.226549331022922e-10 9.156832062116406e-07  0.
-1.9665788565423072e-09 9.142124362904678e-07  0.
-4.275474802200128e-09 9.108945959394093e-07  0.
-8.50524031634455e-09 9.04064425565435e-07  0.
-1.5568018972042023e-08 8.911572056974988e-07  0.
-2.6352016377762654e-08 8.686467564815316e-07  0.
-4.144295718083686e-08 8.322368879704491e-07  0.
-6.082831620650888e-08 7.773885223496645e-07  0.
-8.386131513363445e-08 7.003487738761473e-07  0.
-1.1108364504202149e-07 6.014621467024356e-07  0.
-1.5867369883397003e-07 5.051731394308129e-07  0.
-3.368229099635133e-07 5.750789969163728e-07  0.
0.0 2.343056994404332e-06  0.
-2.6401211053347965e-14 2.3430569843332116e-06  0.
-1.7536581535274655e-13 2.3430569046874807e-06  0.
-1.0092025027694278e-12 2.3430564187107684e-06  0.
-5.092033636465857e-12 2.3430538223883422e-06  0.
-2.2491248568288533e-11 2.3430416886195905e-06  0.
-8.704267475407847e-11 2.3429921059935988e-06  0.
-2.9629734761253583e-10 2.3428144949795124e-06  0.
-8.927499053420312e-10 2.3422537250769756e-06  0.
-2.3986474229953205e-09 2.3406819129016068e-06  0.
-5.790556014546879e-09 2.3367404812779985e-06  0.
-1.2652426345641697e-08 2.3278311062164118e-06  0.
-2.5191636625744996e-08 2.309546950325581e-06  0.
-4.599374006276581e-08 2.2752525975704224e-06  0.
-7.744883236396694e-08 2.2160996696194134e-06  0.
-1.2095250598623235e-07 2.121724099825195e-06  0.
-1.7619266556735746e-07 1.981756921972307e-06  0.
-2.415761680968006e-07 1.7888037335169504e-06  0.
-3.2128110181441985e-07 1.5495337716142197e-06  0.
-4.6703081866871173e-07 1.3447324417374386e-06  0.
-9.262252211948287e-07 1.5736716155209057e-06  0.
0.0 4.778753704735538e-06  0.
-5.554764874523971e-14 4.778753685495743e-06  0.
-3.8111800241523607e-13 4.778753528941255e-06  0.
-2.2694055176684607e-12 4.778752541024402e-06  0.
-1.1845360866396048e-11 4.77874708151504e-06  0.
-5.403013898225758e-11 4.778720726505838e-06  0.
-2.1516084740829618e-10 4.778609857027886e-06  0.
-7.496104129488283e-10 4.778203234530033e-06  0.
-2.296597618460569e-09 4.776898202147859e-06  0.
-6.2322246414067065e-09 4.773209137453966e-06  0.
-1.5098523967546626e-08 4.763952657425957e-06  0.
-3.291196424614725e-08 4.743173843727592e-06  0.
-6.504071312554618e-08 4.70111811476435e-06  0.
-1.1734649828243447e-07 4.62381318109923e-06  0.
-1.946125797975917e-07 4.493844920859143e-06  0.
-2.986487260194434e-07 4.292654987705774e-06  0.
-4.2733444385346963e-07 4.004337074188631e-06  0.
-5.777848239423806e-07 3.6233398149102647e-06  0.
-7.691074340719712e-07 3.1861604352218445e-06  0.
-1.1346109779654348e-06 2.9115845218640306e-06  0.
-2.0672451417355507e-06 3.5169598703542845e-06  0.
0.0 7.722850539315793e-06  0.
-1.0797682670602805e-13 7.722850505706544e-06  0.
-7.622636196469502e-13 7.722850225252744e-06  0.
-4.677358189767686e-12 7.72284840229377e-06  0.
-2.515537115369433e-11 7.722838023025078e-06  0.
-1.180501394140805e-10 7.722786463763473e-06  0.
-4.820650595541654e-10 7.722563954649452e-06  0.
-1.7130506575685674e-09 7.721731284996753e-06  0.
-5.3157159527417496e-09 7.719025388614153e-06  0.
-1.4497441690601962e-08 7.711351497966577e-06  0.
-3.5031596796140835e-08 7.692218082252274e-06  0.
-7.562742741996303e-08 7.649935231771864e-06  0.
-1.4707061980852283e-07 7.566453619877588e-06  0.
-2.596864863576303e-07 7.418037539523126e-06  0.
-4.1956666850658386e-07 7.1787048616781135e-06  0.
-6.253177241141938e-07 6.826198713058548e-06  0.
-8.684351915428367e-07 6.350368446381488e-06  0.
-1.1468713675784979e-06 5.771829183630294e-06  0.
-1.522598150166238e-06 5.218531913488574e-06  0.
-2.2602935684907897e-06 5.158051498754176e-06  0.
-3.715652743426375e-06 6.407122125357217e-06  0.
0.0 1.0232822865216934e-05  0.
-1.948864065003488e-13 1.023282281117865e-05  0.
-1.4105551793401353e-12 1.0232822350203051e-05  0.
-8.885836181581315e-12 1.0232819275366256e-05  0.
-4.905923375123953e-11 1.0232801305557448e-05  0.
-2.360464970573119e-10 1.0232709773316443e-05  0.
-9.853065916435546e-10 1.0232305843018972e-05  0.
-3.560577789423832e-09 1.0230768095237938e-05  0.
-1.1153434568290437e-08 1.0225724525890266e-05  0.
-3.0439857884962934e-08 1.0211436050320361e-05  0.
-7.295458806076831e-08 1.017625251158894e-05  0.
-1.5491737141776203e-07 1.0100339321797719e-05  0.
-2.9408353150248927e-07 9.955628309527518e-06  0.
-5.036195035412674e-07 9.709897277218713e-06  0.
-7.848877033324706e-07 9.335417814901271e-06  0.
-1.1243154622492722e-06 8.82035100930625e-06  0.
-1.5006231683880182e-06 8.183988412672899e-06  0.
-1.9237944374432106e-06 7.519710838079408e-06  0.
-2.5427494523479243e-06 7.144101690428182e-06  0.
-3.7298694553184458e-06 7.79381778831316e-06  0.
-5.4702925123310636e-06 9.718036393916275e-06  0.
0.0 1.2277036903710197e-05  0.
-3.2838785384573927e-13 1.227703682327338e-05  0.
-2.4290426055736195e-12 1.2277036123844136e-05  0.
-1.5656284260114134e-11 1.2277031352720799e-05  0.
-8.84420696877275e-11 1.227700283048752e-05  0.
-4.3493163561269936e-10 1.227685434023042e-05  0.
-1.8506209876107997e-09 1.2276186199475894e-05  0.
-6.7837585573524574e-09 1.2273605012946415e-05  0.
-2.1396737375084935e-08 1.2265080872554085e-05  0.
-5.824307340398836e-08 1.224103294864423e-05  0.
-1.3780422610080042e-07 1.2182845346443576e-05  0.
-2.8612177797231633e-07 1.2061154809207264e-05  0.
-5.265731984836712e-07 1.1839250794138538e-05  0.
-8.679999875149895e-07 1.1483376200349466e-05  0.
-1.2958481747443287e-06 1.0976871985723585e-05  0.
-1.7738770289847073e-06 1.0335078163811224e-05  0.
-2.273123995324273e-06 9.627719302312321e-06  0.
-2.8469133233162583e-06 9.066803012679196e-06  0.
-3.762078873649014e-06 9.210307539909163e-06  0.
-5.309108026636944e-06 1.0776830867812678e-05  0.
-7.013573551320369e-06 1.2867691771909108e-05  0.
0.0 1.4692607277926844e-05  0.
-5.179017726747413e-13 1.469260716750966e-05  0.
-3.903420464857177e-12 1.4692606191327896e-05  0.
-2.56619261110828e-11 1.4692599401979344e-05  0.
-1.478669839355872e-10 1.4692558009840352e-05  0.
-7.410845920597944e-10 1.4692338390800536e-05  0.
-3.20621096723894e-09 1.4691333359989265e-05  0.
-1.1897173534472022e-08 1.4687401356289363e-05  0.
-3.7714535503543694e-08 1.467434883097973e-05  0.
-1.0216304998828586e-07 1.4637752351823398e-05  0.
-2.3780673992522382e-07 1.4551050620275095e-05  0.
-4.805012710783758e-07 1.4376396009786072e-05  0.
-8.529084676838815e-07 1.407419850868245e-05  0.
-1.3469444931200376e-06 1.3620230386411178e-05  0.
-1.9212931814389133e-06 1.3021412211561354e-05  0.
-2.5217228894922933e-06 1.2325537988531567e-05  0.
-3.1436836845468662e-06 1.1660369485310385e-05  0.
-3.942471053878481e-06 1.137471990998671e-05  0.
-5.2436474055943994e-06 1.2150726870368136e-05  0.
-6.975748547481337e-06 1.4088761729123091e-05  0.
-8.535643776242802e-06 1.5606669817161567e-05  0.
0.0 1.7257392476523355e-05  0.
-7.652723102239356e-13 1.7257392337572665e-05  0.
-5.8604524505369686e-12 1.7257391091596934e-05  0.
-3.9180247028580345e-11 1.725738228135088e-05  0.
-2.2959979053262553e-10 1.725732766053041e-05  0.
-1.1694583862169648e-09 1.7257033110612868e-05  0.
-5.131809074698463e-09 1.725566551151542e-05  0.
-1.9238756707851762e-08 1.725025723798181e-05  0.
-6.120673296287818e-08 1.7232233969142563e-05  0.
-1.6476343189551701e-07 1.718206602860894e-05  0.
-3.7647245394393213e-07 1.7065946265998864e-05  0.
-7.377150121373517e-07 1.6841731631344098e-05  0.
-1.2588269837827256e-06 1.6476168702132504e-05  0.
-1.9029525205053466e-06 1.596401413006887e-05  0.
-2.603803793275394e-06 1.5336123638665702e-05  0.
-3.3246038454022566e-06 1.4662827032759611e-05  0.
-4.137134244041e-06 1.4135550182679632e-05  0.
-5.32257009739834e-06 1.423833510100738e-05  0.
-7.056019948754045e-06 1.548396360078731e-05  0.
-8.8266854884399e-06 1.701109320911724e-05  0.
-1.02014980128998e-05 1.7886791452346143e-05  0.
0.0 1.9477004188769936e-05  0.
-1.0619618003834724e-12 1.94770040287215e-05  0.
-8.240881280715258e-12 1.947700257669857e-05  0.
-5.586894592276571e-11 1.947699216873557e-05  0.
-3.3202243073002424e-10 1.9476926744492796e-05  0.
-1.7140669548646677e-09 1.9476569174177907e-05  0.
-7.6111101339206e-09 1.947488897174226e-05  0.
-2.877540152278447e-08 1.9468185721799438e-05  0.
-9.177233018501079e-08 1.944578464966085e-05  0.
-2.453413236356982e-07 1.9383905475585252e-05  0.
-5.497708543245895e-07 1.9244062951535536e-05  0.
-1.0427915354880592e-06 1.8986001840280418e-05  0.
-1.7082810404579992e-06 1.859160839939665e-05  0.
-2.4806145400888125e-06 1.8075725382707438e-05  0.
-3.2939392090621178e-06 1.747856224565307e-05  0.
-4.180259531527317e-06 1.6885753100185232e-05  0.
-5.319563344926715e-06 1.6564847264176006e-05  0.
-6.957806644936525e-06 1.7080950166618687e-05  0.
-8.917322390368614e-06 1.8438604935145493e-05  0.
-1.0493720189272906e-05 1.93445023528714e-05  0.
-1.1732466646987267e-05 2.024790328714747e-05  0.
0.0 2.1921246248495836e-05  0.
-1.3861507909504795e-12 2.192124608189829e-05  0.
-1.0872179695120187e-11 2.192124455605806e-05  0.
-7.454299150252123e-11 2.1921233497596427e-05  0.
-4.480525662789522e-10 2.192116320078894e-05  0.
-2.338432256282936e-09 2.1920774795078288e-05  0.
-1.0483573653935228e-08 2.1918931838292112e-05  0.
-3.990601849960408e-08 2.191152652152878e-05  0.
-1.27487730190173e-07 2.1886727895030813e-05  0.
-3.3854611096327334e-07 2.1818712048085723e-05  0.
-7.445265697291829e-07 2.166843577210478e-05  0.
-1.367497141839145e-06 2.1403374215086e-05  0.
-2.153446398253946e-06 2.102449001645959e-05  0.
-3.027820340621583e-06 2.0558772594793217e-05  0.
-3.970817940190594e-06 2.00359496294695e-05  0.
-5.0946485160295036e-06 1.956767972898024e-05  0.
-6.622149242356011e-06 1.9517594892421263e-05  0.
-8.494255021494238e-06 2.030983405861915e-05  0.
-1.024414868131143e-05 2.13385890403658e-05  0.
-1.148494188008234e-05 2.180399298758781e-05  0.
-1.2845540046592582e-05 2.2948356128003838e-05  0.
0.0 2.431862757808284e-05  0.
-1.7031886610757105e-12 2.4318627425084974e-05  0.
-1.3469035161020797e-11 2.4318626013498716e-05  0.
-9.315109002954028e-11 2.4318615695514734e-05  0.
-5.64805394266558e-10 2.4318549534936734e-05  0.
-2.972637544678899e-09 2.4318180886582412e-05  0.
-1.3425696289550548e-08 2.4316418384063955e-05  0.
-5.1372770217363926e-08 2.430929675696925e-05  0.
-1.6430668395543925e-07 2.428541055259943e-05  0.
-4.337675597299065e-07 2.4220286522457793e-05  0.
-9.383137923396707e-07 2.4079173175368198e-05  0.
-1.673970112635031e-06 2.384029644958904e-05  0.
-2.5449711925295323e-06 2.352001146244722e-05  0.
-3.501841295174839e-06 2.314639852729374e-05  0.
-4.614657798983019e-06 2.2729124633725654e-05  0.
-5.9972795738108634e-06 2.2412503564036625e-05  0.
-7.740019578690174e-06 2.2608559577369797e-05  0.
-9.492554805201253e-06 2.3383087395802265e-05  0.
-1.0838281836966268e-05 2.392169099486395e-05  0.
-1.2144039399092281e-05 2.4224130685897238e-05  0.
-1.3423835756249285e-05 2.5007852508093927e-05  0.
0.0 2.6662853141911734e-05  0.
-1.9720693455596457e-12 2.666285302394363e-05  0.
-1.5686402989873672e-11 2.6662851929973405e-05  0.
-1.0915397056256036e-10 2.6662843885969154e-05  0.
-6.659418036343594e-10 2.66627919940829e-05  0.
-3.525879784763149e-09 2.6662501147385515e-05  0.
-1.6008192431033635e-08 2.666110327340338e-05  0.
-6.148138487249876e-08 2.6655433219860384e-05  0.
-1.9677827565817508e-07 2.6636397534787048e-05  0.
-5.171401700915165e-07 2.65847376470057e-05  0.
-1.1043254415934118e-06 2.6474476726472152e-05  0.
-1.9246486428182874e-06 2.6293949763633737e-05  0.
-2.8457066307794798e-06 2.6064794459172066e-05  0.
-3.870375144166321e-06 2.5808211302680567e-05  0.
-5.169712754122701e-06 2.5521217817958262e-05  0.
-6.736499633363292e-06 2.5349879828319504e-05  0.
-8.414116188645796e-06 2.562492616727856e-05  0.
-9.956844602509451e-06 2.6151834269055644e-05  0.
-1.1211878691403569e-05 2.6356478357541742e-05  0.
-1.2755049309864439e-05 2.6695189500996784e-05  0.
-1.3763610126227037e-05 2.6997078416416826e-05  0.
0.0 2.907841373638824e-05  0.
-2.152867358433851e-12 2.9078413672118992e-05  0.
-1.7184069494368483e-11 2.9078413074243263e-05  0.
-1.2001392134401582e-10 2.90784086619344e-05  0.
-7.349047520097984e-10 2.9078380092040604e-05  0.
-3.904879686527808e-09 2.9078219379810682e-05  0.
-1.778462532767078e-08 2.907744443165561e-05  0.
-6.845476910858582e-08 2.9074293463722324e-05  0.
-2.191843442331415e-07 2.9063707662620563e-05  0.
-5.743827276202408e-07 2.903505775366613e-05  0.
-1.2165639570887427e-06 2.8974478090030348e-05  0.
-2.0884373154788274e-06 2.88774030290861e-05  0.
-3.0331957885353295e-06 2.8758692411125955e-05  0.
-4.105718642341773e-06 2.8629516202038894e-05  0.
-5.549806251003498e-06 2.8484826096960725e-05  0.
-7.193330344292459e-06 2.8416270746685122e-05  0.
-8.698601757220581e-06 2.8597795678346308e-05  0.
-1.0199247076163545e-05 2.8847983800572993e-05  0.
-1.1609181904035932e-05 2.888267996933399e-05  0.
-1.2952189712568206e-05 2.912310688199878e-05  0.
-1.4183078552753203e-05 2.9344493152569412e-05  0.
0.0 3.1449999999999924e-05  0.
-2.2166311297898126e-12 3.1449999999999924e-05  0.
-1.7713474023555963e-11 3.1449999999999924e-05  0.
-1.2386203342520602e-10 3.1449999999999924e-05  0.
-7.594008214884767e-10 3.1449999999999924e-05  0.
-4.039822467828773e-09 3.1449999999999924e-05  0.
-1.8418458420764815e-08 3.1449999999999924e-05  0.
-7.094656939524636e-08 3.1449999999999924e-05  0.
-2.271920625115037e-07 3.1449999999999924e-05  0.
-5.947893401578017e-07 3.1449999999999924e-05  0.
-1.256258015295758e-06 3.1449999999999924e-05  0.
-2.145316168293073e-06 3.1449999999999924e-05  0.
-3.0966625804830186e-06 3.1449999999999924e-05  0.
-4.186675853567161e-06 3.1449999999999924e-05  0.
-5.6847084715546455e-06 3.1449999999999924e-05  0.
-7.343283169266234e-06 3.1449999999999924e-05  0.
-8.771384958779688e-06 3.1449999999999924e-05  0.
-1.0299230373312892e-05 3.1449999999999924e-05  0.
-1.1776453083276156e-05 3.1449999999999924e-05  0.
-1.289770913396569e-05 3.1449999999999924e-05  0.
-1.4404114056604322e-05 3.1449999999999924e-05  0.
</DataArray>
<DataArray type="Float64" Name="sigma_xx" NumberOfComponents="1" format="ascii" >
339.29197371662656 
339.2918241917896 
339.29106806329645 
339.28835728724835 
339.27969580460615 
339.2545949831848 
339.1881146397323 
339.0261547386863 
338.6611738709354 
337.89656775917706 
336.4010526363258 
333.6596197778262 
328.9342666912275 
321.25334371579925 
309.45011801897226 
292.26551712668845 
268.5134946722732 
237.23436932687736 
196.9295354842248 
129.83157554602437 
85.41483542678914 
1480.270299281105 
1480.269891729335 
1480.2677406777761 
1480.259617370194 
1480.2323480889163 
1480.1496838690027 
1479.9216632499497 
1479.3455296036036 
1478.0041394768514 
1475.1110902044836 
1469.3041799906932 
1458.412617419413 
1439.2550647418507 
1407.556248678165 
1358.0828674031316 
1285.0799803093555 
1183.0167132326205 
1047.36235276015 
871.9463641171374 
595.3864052526956 
417.5343731538382 
9023.048449230406 
9023.046811473809 
9023.037781658024 
9023.001855956722 
9022.875286068818 
9022.474722841785 
9021.327187758165 
9018.33038976507 
9011.150519616649 
8995.278572351825 
8962.73958137794 
8900.597263383766 
8789.604983863715 
8603.558717518164 
8310.010394885212 
7872.885124912685 
7257.083684872319 
6433.164055757998 
5359.497215171037 
3660.589703263771 
2568.152714677029 
46749.55304651006 
46749.547173136045 
46749.51343670573 
46749.372571802654 
46748.8535739413 
46747.144383652 
46742.074798378206 
46728.43316757267 
46694.90549928656 
46619.17687983628 
46461.112456891424 
46154.72848954748 
45600.80321560077 
44663.10152683449 
43171.76054635939 
40936.75758527203 
37771.74170467855 
33516.106872341625 
27921.795438246012 
18960.258551756197 
13174.580016817032 
206843.68115816414 
206843.6621682545 
206843.54878499615 
206843.0533890663 
206841.14995894168 
206834.64537142863 
206814.72883307678 
206759.68262807425 
206621.37003071007 
206303.33619840452 
205630.08673431244 
204310.8728539827 
201906.4920385754 
197812.73751728883 
191276.17112480447 
181454.63899127964 
167521.13305277255 
148741.78948310053 
123844.59612720662 
83453.77333049405 
57274.14933379135 
768981.3868399283 
768981.3310872259 
768980.9860007665 
768979.4135851134 
768973.1331787294 
768950.9352271581 
768881.0252934634 
768683.3714263788 
768177.970930503 
767000.9062057224 
764487.7244010747 
759538.8952396528 
750502.6020409337 
735126.7570683188 
710636.2547240839 
673970.8835602291 
622157.418386257 
552462.8596072831 
459350.2042455842 
306339.2361980276 
206793.1531675004 
2351572.7446398176 
2351572.595174977 
2351571.638909666 
2351567.1108060237 
2351548.372691569 
2351480.1032571355 
2351259.8057312584 
2350625.594854882 
2348984.2172850184 
2345136.6867714836 
2336910.2711190213 
2320761.5249010846 
2291478.90232926 
2242151.122680299 
2164543.0836952664 
2049917.0187989073 
1890071.5022208767 
1677037.7634895798 
1390615.7781640026 
914021.5768221018 
603002.3061812548 
5750220.437819052 
5750220.070445265 
5750217.6481293775 
5750205.771235393 
5750155.021373394 
5749965.064187601 
5749339.416790001 
5747514.058273502 
5742760.504899759 
5731625.693967108 
5707988.599616177 
5662195.7504983535 
5580686.209518437 
5446530.263602821 
5241050.280801164 
4946244.399987644 
4546737.241650015 
4025414.902203318 
3321228.673408551 
2136590.026928161 
1362464.3724655265 
10836384.422433585 
10836383.592283918 
10836377.968106743 
10836349.516830467 
10836224.407894267 
10835744.88724956 
10834138.759742828 
10829411.977700448 
10817100.667831047 
10788502.34838548 
10728803.132791039 
10615991.353936788 
10421686.190100618 
10114545.789986491 
9665850.305510517 
9055074.857025098 
8270572.915559325 
7287366.416015539 
5953897.1839140905 
3698466.0791875636 
2229986.151868173 
15104302.163368018 
15104300.433868097 
15104288.429539941 
15104225.992145084 
15103944.365252873 
15102842.419895437 
15099101.342405299 
15088042.669153625 
15059402.360423371 
14993935.69867104 
14860889.008542083 
14618802.28793072 
14221881.612454137 
13631876.622231727 
12831742.143161522 
11833481.78078824 
10665867.199475203 
9301063.403429294 
7431071.565206004 
4316128.1818316495 
2328720.7636009254 
15313301.856054636 
15313298.51887257 
15313274.851637341 
15313148.683635835 
15312566.640148304 
15310247.830689486 
15302289.731058914 
15278741.894089453 
15218408.10794335 
15083684.796583299 
14819768.728191214 
14363540.202586558 
13664102.88409983 
12710101.350182196 
11549633.227796128 
10286147.43059595 
9020470.816210937 
7680703.365860303 
5755041.956103399 
2819480.098357682 
1093772.6004731832 
12781060.16840683 
12781054.17269674 
12781010.830813695 
12780774.681734042 
12779663.294279533 
12775164.898854833 
12759589.020406496 
12713566.500310129 
12597374.888900027 
12345582.817094512 
11874708.33042998 
11111936.638966046 
10039994.949125063 
8736534.384092392 
7377512.223187249 
6174750.667493204 
5223757.7547754105 
4233005.662271166 
2531323.908552313 
589923.3363361097 
-226343.0496480061 
12515431.330987234 
12515421.26626958 
12515347.275947448 
12514936.328907523 
12512967.97058419 
12504889.56456744 
12476713.738388969 
12393727.044204535 
12187925.229540616 
11757730.497208714 
10997405.451213717 
9860568.0380437 
8430131.975012207 
6936853.9747973075 
5688614.118036764 
4888079.827716291 
4372409.378404707 
3418317.837605317 
1497349.0932504113 
19194.809778950126 
-253721.4135465781 
13979746.67431749 
13979730.860035967 
13979612.893474597 
13978946.72297817 
13975706.87751978 
13962250.118520182 
13915041.02255664 
13776614.766686741 
13440181.10130896 
12765520.656496286 
11650738.015554525 
10139080.459259233 
8485039.076296315 
7079532.010717115 
6225777.171384752 
5862935.511828928 
5318664.262467296 
3663072.3186276164 
1232537.3419264157 
-120793.79939390562 
-252562.94778339344 
13428516.631430037 
13428493.32411543 
13428317.284088816 
13427308.979896095 
13422340.963489149 
13401495.236573368 
13328022.205247827 
13113684.022069404 
12603702.454887304 
11626572.616128622 
10133417.893134983 
8334370.132604281 
6680175.712881186 
5610513.607898154 
5158446.47808869 
4772843.587372011 
3456514.620636727 
915039.49128218 
-1059475.785500893 
-1008396.2058196773 
-487590.7010978806 
13089302.193858871 
13089269.914808672 
13089023.558037901 
13087595.690223057 
13080483.36881139 
13050385.33633764 
12943906.525704676 
12634890.327155862 
11914900.361852795 
10599340.486586507 
8758621.696698481 
6835679.276243766 
5403429.826913561 
4714028.279844804 
4321109.611728188 
3271176.596373318 
1052908.227844754 
-1390086.4312183259 
-1733185.1870894968 
-359272.8597053777 
314315.058436485 
13589352.020778585 
13589309.960990937 
13588986.237511512 
13587091.891843734 
13577572.365446717 
13537009.518468015 
13393095.360515669 
12977459.543599322 
12027713.743870737 
10371410.325215625 
8264791.557566253 
6412532.225664055 
5329139.08309258 
4796025.521657978 
3997360.826415302 
2122042.2177880644 
-163478.32793016924 
-1131148.6890669072 
-234751.46335618285 
281979.5063586685 
-62786.74200442468 
13307961.708067492 
13307910.088308673 
13307510.190822812 
13305152.74389086 
13293225.073082194 
13242130.90438886 
13060462.883603645 
12537963.231909163 
11363776.701254634 
9400811.164351113 
7133319.1719438825 
5508140.281749139 
4760445.943094239 
4004912.2433120366 
2562896.764035635 
495111.4866064064 
-919461.2968913575 
-354785.63155298104 
181672.37255559448 
-172847.91100178508 
-246660.11114709172 
13359106.001705218 
13359046.283252629 
13358581.50315529 
13355827.160077235 
13341823.778440332 
13281611.618117623 
13067204.86823357 
12452487.438504864 
11088612.804210708 
8884789.064194562 
6549012.198144147 
5212114.484345325 
4690129.640988189 
3425665.418276214 
1458232.6855683196 
113042.09759648348 
-332756.89754450787 
297358.8442620251 
-43426.25921188702 
76929.77032788063 
1203809.7122361462 
13436075.475356162 
13436010.31488284 
13435501.778713483 
13432478.67847789 
13417064.40585351 
13350636.372951461 
13113888.672023192 
12436455.969178632 
10945470.853578502 
8589081.43824047 
6239667.505769022 
5137539.923104189 
4721188.915417526 