<?xml version="1.0"?>
<VTKFile type="UnstructuredGrid" version="0.1" byte_order="LittleEndian" compressor="vtkZLibDataCompressor">
<UnstructuredGrid>
<Piece NumberOfPoints="441" NumberOfCells="400">
<PointData>
<DataArray type="Float64" Name="displacement" NumberOfComponents="3" format="ascii" >
0.0 4.487728391240119e-09  0.
-3.4487496338721284e-15 4.487725969870622e-09  0.
-1.2947351150029232e-14 4.487714373992093e-09  0.
-4.1949587949453617e-14 4.487675194828113e-09  0.
-1.2406188748537713e-13 4.487555702534263e-09  0.
-3.374968483273452e-13 4.487220946180374e-09  0.
-8.485298393296387e-13 4.486354950208978e-09  0.
-1.97993343821921e-12 4.484277434187327e-09  0.
-4.303993468545465e-12 4.479637794269395e-09  0.
-8.746192644840333e-12 4.469958393341721e-09  0.
-1.6665884651955006e-11 4.451034971913216e-09  0.
-2.9860175210520237e-11 4.416268566627234e-09  0.
-5.042805616045852e-11 4.356092986412692e-09  0.
-8.044664453715769e-11 4.2577480639845395e-09  0.
-1.2145839326724914e-10 4.105688548536816e-09  0.
-1.7384362967400404e-10 3.882865826839743e-09  0.
-2.3624447797612505e-10 3.572957269692427e-09  0.
-3.053717744440866e-10 3.1634866877570796e-09  0.
-3.7740147029554713e-10 2.652690723473118e-09  0.
-4.718674898226798e-10 2.0952087833853576e-09  0.
-9.255875560062356e-10 2.1435205559229666e-09  0.
0.0 1.1531943825803564e-08  0.
-7.162232359035834e-15 1.1531939479850541e-08  0.
-2.7736736637462122e-14 1.1531917959462936e-08  0.
-9.280450996811841e-14 1.1531842166623621e-08  0.
-2.8276799359801007e-13 1.1531601781235832e-08  0.
-7.903575662835131e-13 1.1530904161754452e-08  0.
-2.0361516271538395e-12 1.1529041710701783e-08  0.
-4.855856615312002e-12 1.1524446923529132e-08  0.
-1.0762425043097116e-11 1.151392840915095e-08  0.
-2.2248838507291338e-11 1.1491500552963841e-08  0.
-4.3039677979158385e-11 1.1446806983087458e-08  0.
-7.81384060212319e-11 1.1363312348251076e-08  0.
-1.3348406418389963e-10 1.1216682326865142e-08  0.
-2.1506799705873589e-10 1.0974018393483258e-08  0.
-3.2749139878531935e-10 1.0594743792999889e-08  0.
-4.721640270230165e-10 1.0033821734611783e-08  0.
-6.456287497588573e-10 9.247590627704798e-09  0.
-8.39320489886709e-10 8.202510098469914e-09  0.
-1.0501001659360987e-09 6.895671439848019e-09  0.
-1.3961445030005002e-09 5.514998705634156e-09  0.
-3.208446290617166e-09 5.9110348962835515e-09  0.
0.0 4.8349157925843724e-08  0.
-2.5189691980737963e-14 4.83491441158554e-08  0.
-1.0085507351339966e-13 4.8349073863793994e-08  0.
-3.4906889832432304e-13 4.834881810788532e-08  0.
-1.096972734795624e-12 4.834798127472822e-08  0.
-3.1520503051379967e-12 4.834548371898575e-08  0.
-8.321804502666599e-12 4.8338648081728754e-08  0.
-2.0278244031736546e-11 4.832141119427048e-08  0.
-4.5798685142824956e-11 4.8281191099256147e-08  0.
-9.623901190176528e-11 4.81940011878423e-08  0.
-1.888164587745396e-10 4.801775895433489e-08  0.
-3.4696599399191797e-10 4.768448082217272e-08  0.
-5.988599777365247e-10 4.7093122110206546e-08  0.
-9.733294177296133e-10 4.610591723814931e-08  0.
-1.4930607855675149e-09 4.455167044462032e-08  0.
-2.1659839007288723e-09 4.223899438082466e-08  0.
-2.977199124297807e-09 3.898092022763675e-08  0.
-3.8880004859529975e-09 3.4633342474748235e-08  0.
-4.888447789850984e-09 2.9195846240726068e-08  0.
-6.5480952380319215e-09 2.3526193860682295e-08  0.
-1.48979208676895e-08 2.5704957028928058e-08  0.
0.0 1.8105011538824167e-07  0.
-8.020337460023398e-14 1.8105007416432918e-07  0.
-3.3113848302280146e-13 1.8104985901649246e-07  0.
-1.182000995004476e-12 1.8104905118298357e-07  0.
-3.819355193457999e-12 1.8104633147994962e-07  0.
-1.1246809324807364e-11 1.8103800825670542e-07  0.
-3.033120705629494e-11 1.8101472981064632e-07  0.
-7.527034694769046e-11 1.8095494029001997e-07  0.
-1.7264727213200305e-10 1.8081326194248643e-07  0.
-3.675195756014619e-10 1.8050219848519846e-07  0.
-7.288141084231302e-10 1.7986691392688675e-07  0.
-1.3509971831259766e-09 1.7865569923856e-07  0.
-2.348231653236188e-09 1.7649284597547997e-07  0.
-3.837933087892878e-09 1.7286475768099903e-07  0.
-5.913235271389153e-09 1.6713224573799768e-07  0.
-8.608330729856501e-09 1.585800090069221e-07  0.
-1.186671292180399e-08 1.4650890309972659e-07  0.
-1.554369203858016e-08 1.3038760230300312e-07  0.
-1.966061778545601e-08 1.1030324118434328e-07  0.
-2.6721660966711037e-08 9.00393214823365e-08  0.
-5.848464800964081e-08 9.99428248295342e-08  0.
0.0 5.789874236348614e-07  0.
-2.3404591838594346e-13 5.789873108937622e-07  0.
-9.94350955993408e-13 5.789867083469838e-07  0.
-3.651227970488972e-12 5.789843813421207e-07  0.
-1.2097612753035648e-11 5.789763455161956e-07  0.
-3.6396940424739204e-11 5.789512159111032e-07  0.
-9.993375262596117e-11 5.788796740700173e-07  0.
-2.5164227870508855e-10 5.786933180012515e-07  0.
-5.838860020619636e-10 5.782469877452604e-07  0.
-1.2539057399201654e-09 5.772595724423037e-07  0.
-2.5024633678384e-09 5.752331252232666e-07  0.
-4.6587332528594475e-09 5.713598254119752e-07  0.
-8.118243916780122e-09 5.644395606544742e-07  0.
-1.3283874903703382e-08 5.528431250854996e-07  0.
-2.0469977435585525e-08 5.345603965998723e-07  0.
-2.9785506795781724e-08 5.073640576878042e-07  0.
-4.1035068527869495e-08 4.6910464523561217e-07  0.
-5.3771160648589516e-08 4.182270980619474e-07  0.
-6.838351711395102e-08 3.5555279647133853e-07  0.
-9.435435281052673e-08 2.956044720271438e-07  0.
-1.97115061982852e-07 3.3446034670849375e-07  0.
0.0 1.5543919294810808e-06  0.
-6.286737943564286e-13 1.5543916468372047e-06  0.
-2.7423027209880065e-12 1.5543901027752897e-06  0.
-1.0331785191141656e-11 1.55438398583337e-06  0.
-3.500193760758875e-11 1.5543623840946661e-06  0.
-1.0725115936663819e-10 1.5542935930848802e-06  0.
-2.987241310356577e-10 1.5540950386982115e-06  0.
-7.60166179493969e-10 1.5535729352475405e-06  0.
-1.776191528993082e-09 1.5523157815918974e-06  0.
-3.828952042590552e-09 1.5495301980657168e-06  0.
-7.649281262974463e-09 1.5438237152161225e-06  0.
-1.4220608888788424e-08 1.53296828651157e-06  0.
-2.4697964949393447e-08 1.5137133675895043e-06  0.
-4.0218643967292395e-08 1.481743173752596e-06  0.
-6.161773369050957e-08 1.4318694047717001e-06  0.
-8.910812225274947e-08 1.3585121921774108e-06  0.
-1.2206231265146666e-07 1.2564960252815112e-06  0.
-1.593949599049953e-07 1.1225729094024081e-06  0.
-2.0362122441557177e-07 9.615670279224652e-07  0.
-2.8538136581033033e-07 8.213825578977338e-07  0.
-5.635689253135569e-07 9.512162844152514e-07  0.
0.0 3.441385366868509e-06  0.
-1.5572093662742066e-12 3.441384717381929e-06  0.
-6.958273590261818e-12 3.4413810974091154e-06  0.
-2.6829079205914384e-11 3.4413664244887227e-06  0.
-9.267720527593519e-11 3.441313587040557e-06  0.
-2.883099116532061e-10 3.4411428114677675e-06  0.
-8.116360944047581e-10 3.4406450527446395e-06  0.
-2.078391439174119e-09 3.4393300548715052e-06  0.
-4.866687096001353e-09 3.4361646850847646e-06  0.
-1.0473595613630444e-08 3.4291859781809134e-06  0.
-2.0817383791514246e-08 3.4150233295790632e-06  0.
-3.839130198122567e-08 3.3884397904291854e-06  0.
-6.598162685066465e-08 3.3420765624327903e-06  0.
-1.0612931838047366e-07 3.2666060209232913e-06  0.
-1.6041925715991115e-07 3.1514322331131542e-06  0.
-2.2881616706523363e-07 2.9859335602340588e-06  0.
-3.0946554006333075e-07 2.761269801340293e-06  0.
-4.006245643020922e-07 2.4743704398200744e-06  0.
-5.135444396056474e-07 2.1462781848201e-06  0.
-7.309090475160277e-07 1.9101582809986855e-06  0.
-1.3483298165501242e-06 2.2727329280920702e-06  0.
0.0 6.193561514365305e-06  0.
-3.5612967100739046e-12 6.193560147016941e-06  0.
-1.6264368370555377e-11 6.193552385963452e-06  0.
-6.401723556378361e-11 6.193520279245837e-06  0.
-2.2488419608220955e-10 6.193402704303769e-06  0.
-7.081268770548018e-10 6.1930182174797156e-06  0.
-2.007693508943379e-09 6.191890858281475e-06  0.
-5.151780257877136e-09 6.1889126549166985e-06  0.
-1.2029378549601648e-08 6.181786742847974e-06  0.
-2.5698387505042383e-08 6.166261503037686e-06  0.
-5.04926776190784e-08 6.135300187900598e-06  0.
-9.171060533564953e-08 6.07849585953147e-06  0.
-1.547484694473992e-07 5.982140417663379e-06  0.
-2.437647004198751e-07 5.830278537364471e-06  0.
-3.6024822908956483e-07 5.606767437586043e-06  0.
-5.021276979970568e-07 5.298011399666498e-06  0.
-6.6463018982826e-07 4.896492622837853e-06  0.
-8.475877989534213e-07 4.410596556095168e-06  0.
-1.0893101414099914e-06 3.911458675712262e-06  0.
-1.5702603383305704e-06 3.7027365910772397e-06  0.
-2.669317477125782e-06 4.527865082050893e-06  0.
0.0 9.093176835766917e-06  0.
-7.542159904941214e-12 9.09317418957162e-06  0.
-3.512651078550516e-11 9.093158921462472e-06  0.
-1.4080402816963339e-10 9.093094606971008e-06  0.
-5.017609177061212e-10 9.092855690008659e-06  0.
-1.5947857369112661e-09 9.09206742493625e-06  0.
-4.538567098073781e-09 9.089750447550138e-06  0.
-1.1622793935750617e-08 9.083656910836186e-06  0.
-2.6932397869116234e-08 9.069244969458205e-06  0.
-5.679140533037229e-08 9.038426972176777e-06  0.
-1.095959728345821e-07 8.978524426699892e-06  0.
-1.9463584851206194e-07 8.872132133106778e-06  0.
-3.1986907478279375e-07 8.698577714190104e-06  0.
-4.891673597729064e-07 8.437212647856815e-06  0.
-7.002068333955685e-07 8.071940491994995e-06  0.
-9.444231635636344e-07 7.595981999757387e-06  0.
-1.212150687567698e-06 7.0182663569482785e-06  0.
-1.513907709803901e-06 6.387274582069046e-06  0.
-1.9507072438877307e-06 5.8906827957133895e-06  0.
-2.825191708430241e-06 6.072776221830912e-06  0.
-4.370727613512914e-06 7.553415118974455e-06  0.
0.0 1.1406820320512096e-05  0.
-1.4873710759515738e-11 1.1406815575330043e-05  0.
-7.049850552583569e-11 1.1406787790976766e-05  0.
-2.871778635542064e-10 1.1406668871069709e-05  0.
-1.0358902536546609e-09 1.140622169031145e-05  0.
-3.315335856503995e-09 1.1404736639297491e-05  0.
-9.442684775678188e-09 1.1400373796176906e-05  0.
-2.404438609163112e-08 1.1388996113520346e-05  0.
-5.5041584905179526e-08 1.1362533572123448e-05  0.
-1.1394915933386347e-07 1.1307354605370662e-05  0.
-2.1464993716070636e-07 1.120364539252667e-05  0.
-3.701890190839687e-07 1.1026997664308862e-05  0.
-5.8815155485351e-07 1.0752879998575982e-05  0.
-8.664351100735646e-07 1.0363259529118427e-05  0.
-1.1917019728934316e-06 9.853454652667316e-06  0.
-1.5434953717230756e-06 9.237834862799652e-06  0.
-1.909611542409125e-06 8.561837634716573e-06  0.
-2.3343143755565925e-06 7.956687755473914e-06  0.
-3.0222224002199694e-06 7.804027980112054e-06  0.
-4.325168071051287e-06 8.805565823926883e-06  0.
-6.0669136611163355e-06 1.081499446549204e-05  0.
0.0 1.3455291930863314e-05  0.
-2.7455615688657118e-11 1.3455284006533015e-05  0.
-1.3219742811377852e-10 1.3455236991796873e-05  0.
-5.46247024329262e-10 1.3455032897914982e-05  0.
-1.9909826280640247e-09 1.3454257373466516e-05  0.
-6.404226817382277e-09 1.3451669775465464e-05  0.
-1.8212312122983478e-08 1.3444089180798214e-05  0.
-4.596873701414202e-08 1.342455012234254e-05  0.
-1.0354509005596504e-07 1.338006519283951e-05  0.
-2.094511403984979e-07 1.3290155918969521e-05  0.
-3.830223049237328e-07 1.3127966071208107e-05  0.
-6.376758241031521e-07 1.286534449247149e-05  0.
-9.73587923867157e-07 1.2481376257473454e-05  0.
-1.3739546501058034e-06 1.1971280632508723e-05  0.
-1.8081465749864699e-06 1.1351809380449177e-05  0.
-2.2454695316315724e-06 1.0665182885595858e-05  0.
-2.689241714385657e-06 1.0004238797177784e-05  0.
-3.256687067504614e-06 9.620308651313476e-06  0.
-4.256650239169182e-06 1.00933859122439e-05  0.
-5.878666722428366e-06 1.1908318078644473e-05  0.
-7.576002823004131e-06 1.3873978035815387e-05  0.
0.0 1.595866402494861e-05  0.
-4.7524746884851226e-11 1.595865174000204e-05  0.
-2.3206334339452632e-10 1.5958577986984224e-05  0.
-9.710759592925303e-10 1.5958253770076474e-05  0.
-3.571120159326508e-09 1.5957010618149253e-05  0.
-1.1527941673951378e-08 1.595284887536684e-05  0.
-3.2674619381504626e-08 1.5940711508699567e-05  0.
-8.155074728804514e-08 1.5909871351991808e-05  0.
-1.8016037357695937e-07 1.5841412884042503e-05  0.
-3.546539538381976e-07 1.5708039314850613e-05  0.
-6.268057284120252e-07 1.5478698762559845e-05  0.
-1.002935858610949e-06 1.5128361434452718e-05  0.
-1.4663205356628855e-06 1.4649104513343253e-05  0.
-1.9792181921250707e-06 1.4056248007998682e-05  0.
-2.498134949509611e-06 1.338613027297763e-05  0.
-3.0013774646822602e-06 1.2700647680652897e-05  0.
-3.5485662291392607e-06 1.2145598562656022e-05  0.
-4.36272804195656e-06 1.2112874578171543e-05  0.
-5.75378778318213e-06 1.3218096023606807e-05  0.
-7.515961027072027e-06 1.5218105687199412e-05  0.
-9.095977121010296e-06 1.6606257665670074e-05  0.
0.0 1.8501737282779138e-05  0.
-7.720869255621619e-11 1.8501719646332283e-05  0.
-3.816954822779779e-10 1.8501612652789575e-05  0.
-1.6149060028192205e-09 1.8501137099659538e-05  0.
-5.983745076075341e-09 1.8499299583536862e-05  0.
-1.9361106417431867e-08 1.8493134634730418e-05  0.
-5.4620031050820166e-08 1.8475258980543786e-05  0.
-1.34542996371156e-07 1.8430573323954055e-05  0.
-2.9072788426955025e-07 1.8334194446569094e-05  0.
-5.551273508453643e-07 1.8154120331488554e-05  0.
-9.450845951918943e-07 1.7860772609354744e-05  0.
-1.449786616592586e-06 1.7440436488590967e-05  0.
-2.0295129856857153e-06 1.690342956889962e-05  0.
-2.6315184683917585e-06 1.6279385304274385e-05  0.
-3.2208458664986266e-06 1.5608092781727793e-05  0.
-3.822817740445622e-06 1.496251755032989e-05  0.
-4.587769405098194e-06 1.4575163912808392e-05  0.
-5.8144156351387235e-06 1.497580526615084e-05  0.
-7.589897700958421e-06 1.6504506528214005e-05  0.
-9.320860588374577e-06 1.8079706541375357e-05  0.
-1.0738649113857972e-05 1.9104575522939803e-05  0.
0.0 2.069848537255699e-05  0.
-1.1803174139135362e-10 2.0698461872166917e-05  0.
-5.898095947759559e-10 2.0698318010884086e-05  0.
-2.5192282189689472e-09 2.0697672528863676e-05  0.
-9.393548624539823e-09 2.0695162410322157e-05  0.
-3.0434587816402567e-08 2.0686730789048414e-05  0.
-8.537712596001645e-08 2.0662445457362782e-05  0.
-2.072892077125033e-07 2.060279989797299e-05  0.
-4.372407069759858e-07 2.0478140725890897e-05  0.
-8.077646839015906e-07 2.0255783649098363e-05  0.
-1.3219897479188024e-06 1.9914395489035123e-05  0.
-1.9442181681988556e-06 1.9456509381332404e-05  0.
-2.6166054663468517e-06 1.8906021208221053e-05  0.
-3.2949552418456548e-06 1.828936468322014e-05  0.
-3.984960868561073e-06 1.7634742980499807e-05  0.
-4.789407176474495e-06 1.705246726087181e-05  0.
-5.929529312949285e-06 1.6917974819081407e-05  0.
-7.626648147079705e-06 1.7793621041320496e-05  0.
-9.55564602948011e-06 1.9413617051701034e-05  0.
-1.109307629724709e-05 2.048309681734406e-05  0.
-1.2410250846755964e-05 2.179298600871161e-05  0.
0.0 2.314603569764328e-05  0.
-1.700810166958966e-10 2.3146006764430262e-05  0.
-8.57768587230713e-10 2.314582826019071e-05  0.
-3.693588434271704e-09 2.3145020829622792e-05  0.
-1.3844929968069146e-08 2.3141863994915936e-05  0.
-4.4887047797423196e-08 2.313125352850051e-05  0.
-1.251643375570703e-07 2.3100902745287746e-05  0.
-2.993970208540158e-07 2.302768941437445e-05  0.
-6.158849669648434e-07 2.28796215033931e-05  0.
-1.0993801836926938e-06 2.2628314263489544e-05  0.
-1.7292335158424634e-06 2.2265935843694583e-05  0.
-2.4461807663864637e-06 2.180925432720416e-05  0.
-3.1937178090480985e-06 2.128126570495417e-05  0.
-3.968935491935902e-06 2.068880985279839e-05  0.
-4.838626469811415e-06 2.0061605397115658e-05  0.
-5.960410519345291e-06 1.961622135821179e-05  0.
-7.542693068890505e-06 1.986500749720082e-05  0.
-9.503611727334244e-06 2.1103412336937202e-05  0.
-1.1257024384014524e-05 2.235429454431863e-05  0.
-1.2564462494133482e-05 2.3044788003733583e-05  0.
-1.3987252608120402e-05 2.4604640353927853e-05  0.
0.0 2.557382232004714e-05  0.
-2.3117341743295739e-10 2.557378967042517e-05  0.
-1.1749040853048852e-09 2.5573586910422786e-05  0.
-5.093501284815804e-09 2.5572663504206247e-05  0.
-1.9174133558615942e-08 2.5569037124980626e-05  0.
-6.217754338025804e-08 2.555684559811248e-05  0.
-1.7234525976414512e-07 2.5522203531182387e-05  0.
-4.063065700819196e-07 2.544007690244977e-05  0.
-8.153106261988317e-07 2.5279332608668848e-05  0.
-1.4064437615770135e-06 2.502012919813282e-05  0.
-2.1300703369507794e-06 2.4669418442142146e-05  0.
-2.9185677580157646e-06 2.424913530022652e-05  0.
-3.7458644735689543e-06 2.376453879223081e-05  0.
-4.667832959331192e-06 2.3206019373644146e-05  0.
-5.7972497257997185e-06 2.2650026879630007e-05  0.
-7.257743418172624e-06 2.2453165396928212e-05  0.
-9.114061970988343e-06 2.3118542879231916e-05  0.
-1.0963368268211807e-05 2.4349397518895988e-05  0.
-1.2399083329352873e-05 2.498183511339207e-05  0.
-1.3717735714020197e-05 2.555981260186809e-05  0.
-1.5039829433029344e-05 2.668217616020786e-05  0.
0.0 2.7872422982238902e-05  0.
-2.9678802632691677e-10 2.7872389512758263e-05  0.
-1.517849574641541e-09 2.7872180566082882e-05  0.
-6.616290699366616e-09 2.787122382709448e-05  0.
-2.4991021774623924e-08 2.7867453574624057e-05  0.
-8.103284956583614e-08 2.7854780029648977e-05  0.
-2.2337085620799739e-07 2.7818989280057298e-05  0.
-5.196018384215405e-07 2.77354830208862e-05  0.
-1.0186676791530974e-06 2.7577028751197024e-05  0.
-1.70128428519348e-06 2.733407329150574e-05  0.
-2.4904447482562355e-06 2.7025002703191115e-05  0.
-3.3370919060010955e-06 2.6665942186160315e-05  0.
-4.271225243961349e-06 2.6236338248039635e-05  0.
-5.38348428883409e-06 2.5734290194191273e-05  0.
-6.777502109190328e-06 2.532599254108543e-05  0.
-8.449515672894627e-06 2.5430802941587157e-05  0.
-1.0245788840528278e-05 2.6279308161075278e-05  0.
-1.1801978013348553e-05 2.7068852856351783e-05  0.
-1.3078010204096822e-05 2.7311497048607534e-05  0.
-1.4584067095779754e-05 2.8085740913396268e-05  0.
-1.5630862060173958e-05 2.854956372564221e-05  0.
0.0 3.033212476543029e-05  0.
-3.601526995470133e-10 3.0332094372685184e-05  0.
-1.850846928395045e-09 3.0331903845524458e-05  0.
-8.101878480354882e-09 3.033102771778013e-05  0.
-3.0681238825897124e-08 3.0327565724692274e-05  0.
-9.94615002437579e-08 3.031593002321878e-05  0.
-2.728875529468201e-07 3.0283236630999566e-05  0.
-6.276021768985355e-07 3.0207974956201073e-05  0.
-1.2058007182113582e-06 3.006897602909477e-05  0.
-1.9573718398330193e-06 2.9865408198113257e-05  0.
-2.785600799333348e-06 2.9620374209945177e-05  0.
-3.687955889067248e-06 2.9338242482562054e-05  0.
-4.759363826911299e-06 2.897938713795648e-05  0.
-6.059377061372258e-06 2.8571406672304394e-05  0.
-7.612455486842737e-06 2.8357620228012134e-05  0.
-9.305305199779559e-06 2.8662911491131505e-05  0.
-1.087373526998341e-05 2.9340888071861563e-05  0.
-1.232326714186503e-05 2.9663271983628423e-05  0.
-1.3701736055056493e-05 2.9872017309627345e-05  0.
-1.5099206102378857e-05 3.0563996599842004e-05  0.
-1.6333405025554305e-05 3.0839752522953017e-05  0.
0.0 3.266455050364687e-05  0.
-4.13349645917305e-10 3.266452727793991e-05  0.
-2.1315446081611696e-09 3.266438125879253e-05  0.
-9.358500318033125e-09 3.266370781105551e-05  0.
-3.5503867385359875e-08 3.2661041787505826e-05  0.
-1.1506749260552762e-07 3.265208342313087e-05  0.
-3.1457834152768386e-07 3.262701035443769e-05  0.
-7.17215261854679e-07 3.2569880733605566e-05  0.
-1.3564986062577804e-06 3.246658108447722e-05  0.
-2.153294711284066e-06 3.232083071243932e-05  0.
-3.0008704869102638e-06 3.215299876123994e-05  0.
-3.957708295095152e-06 3.195819576292204e-05  0.
-5.172574744841058e-06 3.169483464628749e-05  0.
-6.605541815066623e-06 3.141472735303774e-05  0.
-8.171216196422806e-06 3.135861334033799e-05  0.
-9.806485873818171e-06 3.166555436020028e-05  0.
-1.1278233781017e-05 3.202453658242982e-05  0.
-1.2760721377140865e-05 3.2164438237387974e-05  0.
-1.4219644280599947e-05 3.2441058325895623e-05  0.
-1.539277507972794e-05 3.274457851719449e-05  0.
-1.6808762285224996e-05 3.3036666601778435e-05  0.
0.0 3.507469998258776e-05  0.
-4.488971137683382e-10 3.507468738124533e-05  0.
-2.319619502982625e-09 3.5074608017208585e-05  0.
-1.0202420995295401e-08 3.507424132458534e-05  0.
-3.8746864946136145e-08 3.507278803138027e-05  0.
-1.2555584912909563e-07 3.506790536866514e-05  0.
-3.424866038958957e-07 3.5054272309528896e-05  0.
-7.765938442256541e-07 3.5023407894136504e-05  0.
-1.454219198640937e-06 3.496835098881882e-05  0.
-2.2755342553088485e-06 3.489255381507328e-05  0.
-3.1308154510135123e-06 3.480776289605179e-05  0.
-4.130269099516791e-06 3.4708096996798736e-05  0.
-5.4544236479558315e-06 3.456768827186549e-05  0.
-6.950894020932059e-06 3.4427949828817894e-05  0.
-8.45390090863527e-06 3.4436037647736356e-05  0.
-1.0074840645111763e-05 3.461320317519308e-05  0.
-1.1598764037814837e-05 3.4738627780827145e-05  0.
-1.2993917005538082e-05 3.4805810533790614e-05  0.
-1.4422214294969595e-05 3.501793732587869e-05  0.
-1.566249229910557e-05 3.515042384369261e-05  0.
-1.6907003514462416e-05 3.5254006866522614e-05  0.
0.0 3.745000000000007e-05  0.
-4.61399627844065e-10 3.745000000000007e-05  0.
-2.385857338345358e-09 3.745000000000007e-05  0.
-1.0499983613981446e-08 3.745000000000007e-05  0.
-3.9891061434398795e-08 3.745000000000007e-05  0.
-1.2925517784130548e-07 3.745000000000007e-05  0.
-3.523097034969161e-07 3.745000000000007e-05  0.
-7.973824558445965e-07 3.745000000000007e-05  0.
-1.488040407077628e-06 3.745000000000007e-05  0.
-2.3169596460482084e-06 3.745000000000007e-05  0.
-3.1741182422036586e-06 3.745000000000007e-05  0.
-4.1899522824980766e-06 3.745000000000007e-05  0.
-5.554850288118289e-06 3.745000000000007e-05  0.
-7.067417171242188e-06 3.745000000000007e-05  0.
-8.53505533291353e-06 3.745000000000007e-05  0.
-1.0165107393789344e-05 3.745000000000007e-05  0.
-1.172812898131825e-05 3.745000000000007e-05  0.
-1.303526036505081e-05 3.745000000000007e-05  0.
-1.44582983867897e-05 3.745000000000007e-05  0.
-1.5800359550235543e-05 3.745000000000007e-05  0.
-1.6952278799920375e-05 3.745000000000007e-05  0.
</DataArray>
<DataArray type="Float64" Name="sigma_xx" NumberOfComponents="1" format="ascii" >
39447.82374496468 
39447.756554344945 
39447.45781782054 
39446.542944054905 
39444.01508116922 
39437.57438755745 
39422.35381053093 
39388.84787191286 
39319.87296612592 
39186.6197954449 
38944.24637504999 
38527.96107553512 
37851.01093635722 
36806.21322603715 
35272.425108212585 
33126.45263565671 
30258.548594364045 
26575.441644821607 
21842.16805753424 
13753.221234980012 
8341.241501397253 
122815.80940723952 
122815.65201763262 
122814.9366025721 
122812.68142412257 
122806.27217156609 
122789.51171268977 
122748.95076117007 
122657.70852957487 
122466.15315391615 
122089.44597757173 
121393.16188774502 
120179.84127348776 
118180.97904493782 
115059.89267885927 
110430.40126445243 
103893.59271737727 
95087.71380651588 
83705.92496647064 
69070.2764644113 
45741.311638333704 
30677.62615042711 
474703.57274128613 
474703.04072846344 
474700.57423390483 
474692.60731129436 
474669.4611743983 
474607.8020232939 
474456.3145700679 
474111.4470507039 
473380.8102076352 
471934.5032983683 
469249.5834702463 
464559.39868984814 
456825.56854712265 
444753.2223018856 
426866.86752342875 
401652.81051053037 
367742.4769083669 
323928.8862041805 
267317.5632821461 
177259.53124477773 
119284.4861507724 
1486278.6125288792 
1486276.9767252756 
1486269.2675818019 
1486243.8799770945 
1486168.9078165342 
1485966.7069100658 
1485465.7096338482 
1484319.661259314 
1481888.0356077864 
1477081.861085216 
1468196.5178200218 
1452773.4089156191 
1427547.6249361117 
1388539.6917427457 
1331329.3899518931 
1251504.4189905617 
1145153.45452891 
1008535.5901065401 
830800.3288084812 
544380.0970641258 
359327.49965346104 
3848461.0313528776 
3848456.4096790673 
3848434.3042638944 
3848360.2791847833 
3848138.804946132 
3847536.41990228 
3846038.109048282 
3842612.4782300023 
3835377.90751904 
3821199.1878981628 
3795297.515947642 
3751006.1565391207 
3679822.5662173484 
3571868.1646937686 
3416769.2362158042 
3204811.00649835 
2927788.3928349055 
2576390.3304858548 
2115780.0424610926 
1363944.5405493993 
877015.1570604173 
8027339.603752745 
8027327.565830212 
8027269.225594886 
8027071.084578682 
8026472.468242534 
8024837.102700164 
8020773.602510365 
8011542.032916119 
7992269.811616089 
7955119.041400124 
7888683.340720018 
7777971.586791574 
7605269.757053117 
7351931.313250537 
7000768.432345531 
6538258.319986679 
5954441.303086417 
5230787.7724576 
4272701.630207893 
2688918.436830008 
1662889.7669769484 
13020832.92999044 
13020803.984856661 
13020662.079104608 
13020174.528521316 
13018691.965035366 
13014640.32268063 
13004633.786895476 
12982184.386738721 
12936203.565246431 
12849808.85012851 
12700206.31634286 
12460391.474732488 
12102907.564759161 
11605006.615022015 
10953557.681441223 
10147055.643809546 
9188544.743862845 
8045217.869738746 
6502428.345491283 
3931505.705604314 
2277073.7373169297 
15869721.403671112 
15869656.977419205 
15869337.942804143 
15868231.659773428 
15864855.700720485 
15855661.604042001 
15833202.440758726 
15783754.416854536 
15685163.611512717 
15506349.781756409 
15210118.960319836 
14760146.894733356 
14131196.06834811 
13319313.190910298 
12347366.536580598 
11259826.653381377 
10093139.159223398 
8776256.298209047 
6910083.316581441 
3852853.108435595 
1945452.2936604745 
14635562.756535936 
14635429.322331052 
14634762.746176539 
14632434.220078938 
14625320.250789765 
14606075.735368231 
14559785.14074953 
14460356.676359918 
14268863.377055716 
13936946.041977629 
13417628.563885028 
12682669.650068743 
11740953.305843942 
10649172.858284548 
9506008.63383423 
8421707.525511365 
7440076.804892073 
6363157.549697557 
4604456.667049581 
2041880.4245500995 
628386.2713674238 
12240484.217455722 
12240225.708820684 
12238924.252504637 
12234350.761560926 
12220387.425370071 
12182965.892674182 
12094678.14374448 
11910709.355204904 
11571088.394751063 
11014354.736298049 
10203238.16145813 
9154542.741771199 
7957412.349791907 
6764885.361788286 
5750397.951140122 
5026773.8903811565 
4502782.6802908415 
3694840.2187749622 
1996174.0423696116 
262408.41096911207 
-338536.86381053115 
12774143.4645549 
12773673.796958622 
12771293.043358669 
12762887.074956568 
12737278.364214037 
12669440.468214463 
12513039.185273489 
12198675.499902723 
11646988.109852247 
10801727.371819608 
9674309.346548839 
8375892.87896491 
7108379.305553134 
6100921.317958277 
5506559.361513947 
5267064.450787929 
4953417.728098094 
3772783.13572908 
1560177.90769736 
11952.220201599703 
-246991.73778696393 
14165169.525496451 
14164368.326117117 
14160282.879022997 
14145805.663243465 
14101851.502504181 
13986981.294420324 
13729064.834679317 
13231922.25889869 
12410077.673042292 
11249309.192679089 
9861858.686198816 
8487281.351695448 
7411839.039015828 
6824952.054129582 
6679229.208816363 
6579181.035872142 
5757540.349935263 
3583415.0886315666 
995141.2795643491 
-185490.8430518162 
-243489.58578405378 
13302272.252054753 
13300986.146258198 
13294394.365587221 
13270971.469724793 
13200158.746892676 
13017814.598134497 
12620173.157387348 
11889175.176772866 
10761753.994228287 
9316601.76072698 
7808741.799329493 
6583454.099968089 
5889390.438977581 
5698278.895648256 
5625794.618307212 
5000802.840105273 
3124239.5106185325 
338760.89764956525 
-1266041.1552362295 
-797943.7559808309 
-181678.94622361465 
13033048.328054875 
13031102.005526 
13021082.246512424 
12985404.673758902 
12878046.71858375 
12605817.07590575 
12030272.095929839 
11026124.560658973 
9596047.34649697 
7962475.6835493315 
6521942.007303179 
5620151.426608002 
5283248.432544663 
5149661.103948696 
4598732.124130715 
3039548.5006715413 
459464.12805954495 
-1669474.502781057 
-1483564.831889139 
-75543.55142510528 
506945.08944330853 
13682415.24852487 
13679635.413874201 
13665271.29681478 
13614047.556741327 
13460651.406237159 
13077604.803473476 
12293106.51236792 
10999334.583971325 
9316747.931233253 
7642001.582267078 
6441186.666653553 
5889594.183418411 
5653581.937224185 
5120693.302638396 
3811319.5094875908 
1614197.344171206 
-564224.1943698637 
-1108559.8995354827 
-13000.43377571422 
265471.7029282247 
-223655.36437427258 
13262759.650950218 
13259007.960127067 
13239562.106238227 
13170141.916385315 
12963218.90406628 
12453990.276823958 
11443096.522171954 
9870695.711339846 
8023704.408534389 
6465659.166495931 
5587566.876692795 
5222495.764530036 
4727775.066772438 
3540792.239091636 
1728548.8252937826 
-246837.2140426278 
-1268373.5571825062 
-646167.5170557037 
-41911.7354448213 
-381324.4643648873 
-652226.8065741542 
13351903.631943956 
13347114.694383843 
13322230.812824667 
13233330.725162692 
12969453.042798579 
12328518.171549674 
11092524.275576832 
9278035.156662166 
7370086.668679122 
6052144.398596578 
5459985.229962044 
4991572.837006663 
3994630.6402646177 
2327574.733277696 
610466.328327286 
-434195.3337384105 
-588303.8417734077 
-20812.09138214632 
-292681.8457121306 
-95365.45997025038 
787149.40925784 
13446425.27811592 
13440639.489433857 
13410518.539182374 
13302855.000713367 
12984405.695153613 
12219378.468079347 
10780615.911501467 
8777897.26747774 
6898406.599220696 
5877477.158362379 
5448498.329353205 
4600897.548665408 
3113931.530989458 
1491512.7756661624 
280019.3429997734 
30473.443780825946 
4836.123485682794 
-49361.815252168584 
-187806.18813451994 
-219568.51436121465 
31124.599511992536 
13306479.973529462 
13299860.010907592 
13265349.870182801 
13141959.222268008 
12777958.05892959 
11910727.68281863 
10311145.029155124 
8179503.54402549 
6377186.339480159 
5632959.866659045 
5234647.5577020645 
3881570.0783076882 
2111576.9392797635 
1033338.1241857985 
249598.26110874652 
33494.571413414225 
-10696.66397389675 
-353603.19456162176 
149056.0720456395 
-220208.99136962392 
-1158921.0720406102 
13426745.088144626 
13419569.12277438 
13382130.462290663 
13248246.169373013 
12853938.373531256 
11919345.01161316 
10216637.745916545 
8012046.449494584 
6284517.091195954 
5732713.100779767 
5296037.443685249 