<?xml version="1.0"?>
<VTKFile type="UnstructuredGrid" version="0.1" byte_order="LittleEndian" compressor="vtkZLibDataCompressor">
<UnstructuredGrid>
<Piece NumberOfPoints="441" NumberOfCells="400">
<PointData>
<DataArray type="Float64" Name="displacement" NumberOfComponents="3" format="ascii" >
0.0 0.0  0.
0.0 0.0  0.
0.0 0.0  0.
0.0 0.0  0.
0.0 0.0  0.
0.0 0.0  0.
0.0 0.0  0.
0.0 0.0  0.
0.0 0.0  0.
0.0 0.0  0.
0.0 0.0  0.
0.0 0.0  0.
0.0 0.0  0.
0.0 0.0  0.
0.0 0.0  0.
0.0 0.0  0.
0.0 0.0  0.
0.0 0.0  0.
0.0 0.0  0.
0.0 0.0  0.
0.0 0.0  0.
0.0 0.0  0.
0.0 0.0  0.
0.0 0.0  0.
0.0 0.0  0.
0.0 0.0  0.
0.0 0.0  0.
0.0 0.0  0.
0.0 0.0  0.
0.0 0.0  0.
0.0 0.0  0.
0.0 0.0  0.
0.0 0.0  0.
0.0 0.0  0.
0.0 0.0  0.
0.0 0.0  0.
0.0 0.0  0.
0.0 0.0  0.
0.0 0.0  0.
0.0 0.0  0.
0.0 0.0  0.
0.0 0.0  0.
0.0 3.1582505891448264e-83  0.
6.14715305499503e-83 2.9889049354325935e-83  0.
1.1878503138043767e-82 2.7424387078868082e-83  0.
-2.3174603039571673e-74 -2.3174603185840626e-74  0.
-2.3102406293438104e-73 -1.8467485672239497e-73  0.
-1.4662269112252982e-72 -1.0505279912175423e-72  0.
-7.843877168908419e-72 -5.327122270417942e-72  0.
-3.626398935707659e-71 -2.3092989895999774e-71  0.
-1.3656964855814297e-70 -7.721266925062862e-71  0.
-4.342359224005693e-70 -2.2045360708198757e-70  0.
-1.161592508173666e-69 -5.069029502676975e-70  0.
-2.6835443749415534e-69 -1.0150491273092923e-69  0.
-5.381411957020358e-69 -1.6828172368209488e-69  0.
-9.490196630034864e-69 -2.425973804554854e-69  0.
-1.4748817724933039e-68 -2.832611500161542e-69  0.
-2.024603545979241e-68 -2.6648428015526294e-69  0.
-2.4397494555324706e-68 -1.4848351074183338e-69  0.
-2.54076947885064e-68 4.60345011152519e-70  0.
-2.208343453097791e-68 2.9829152517345515e-69  0.
-1.352998044899012e-68 4.560945596117777e-69  0.
-7.824403708967343e-69 9.872342870061024e-69  0.
0.0 1.4216632558545565e-69  0.
2.26975477537918e-69 8.480886092383669e-70  0.
3.955020159870171e-69 8.37184341997323e-70  0.
4.778347516772722e-69 -1.3912792731804712e-71  0.
-4.520900550704965e-70 -5.216931909756036e-69  0.
-5.069717636515231e-68 -4.503063091678747e-68  0.
-3.407282455132607e-67 -2.4501319029329227e-67  0.
-1.8155310064352268e-66 -1.2298464087248052e-66  0.
-7.987765165220178e-66 -4.942588383603123e-66  0.
-2.847107825809645e-65 -1.5541320067810171e-65  0.
-8.488853195095262e-65 -4.087758632587698e-65  0.
-2.1257159274457444e-64 -8.680854095194641e-65  0.
-4.576356245800413e-64 -1.582607263537614e-64  0.
-8.520036952866553e-64 -2.361164589423287e-64  0.
-1.38619639460516e-63 -2.980819974390974e-64  0.
-1.971152736162984e-63 -2.869139070880548e-64  0.
-2.4430947195270573e-63 -1.848351091431507e-64  0.
-2.5982610256655564e-63 2.809892854506967e-65  0.
-2.2909804035840412e-63 2.919552514919127e-64  0.
-1.415960131365129e-63 4.7587814076398965e-64  0.
-8.183907155632447e-64 1.0359372777294326e-63  0.
0.0 6.942351269410338e-65  0.
1.6968561522413262e-64 1.0026598756855745e-64  0.
2.966172290868182e-64 2.667067974805543e-65  0.
3.467946434948926e-64 2.350632436818657e-65  0.
3.319870097193584e-64 -3.832261965509314e-65  0.
-5.098691504290638e-64 -8.036352552607122e-64  0.
-7.623445198446514e-63 -6.310520245902306e-63  0.
-4.645266949114389e-62 -3.25216536274871e-62  0.
-2.2499870072670747e-61 -1.4603672467192162e-61  0.
-8.952708097589748e-61 -5.242763398538479e-61  0.
-2.909289189571463e-60 -1.4898548683945923e-60  0.
-7.935104490346841e-60 -3.5362166033189825e-60  0.
-1.8236294676123598e-59 -6.765455198496856e-60  0.
-3.5993887943701035e-59 -1.09929839067243e-59  0.
-6.12464006156548e-59 -1.4260286629210666e-59  0.
-9.042616411154057e-59 -1.4922347636190624e-59  0.
-1.1532107462674568e-58 -9.962532996112344e-60  0.
-1.2532631523373996e-58 -1.2448000002290108e-61  0.
-1.122514327399522e-58 1.3850520463588982e-59  0.
-6.986769490801018e-59 2.3174869298888277e-59  0.
-4.05967865900486e-59 5.147714023503986e-59  0.
0.0 4.1427088199816406e-60  0.
5.79142405915035e-60 1.6489885932751337e-60  0.
9.793743578741374e-60 2.3537523858075707e-60  0.
1.1460846830223236e-59 -6.867482918125232e-61  0.
1.0372436663452574e-59 -4.0152391082777264e-61  0.
8.080929541540098e-60 -1.8917747585419437e-60  0.
-6.486901998748971e-59 -7.1072350207349544e-59  0.
-6.475892463518369e-58 -5.117255378860467e-58  0.
-6.155518622026277e-57 -4.9965613507633335e-57  0.
-3.8662326773165175e-56 -2.7511570788737994e-56  0.
-1.5515978259885986e-55 -8.899013139925425e-56  0.
-4.8742149041364476e-55 -2.4328012773227363e-55  0.
-1.206415335533345e-54 -4.757407716967552e-55  0.
-2.5072392365588608e-54 -8.251003084888981e-55  0.
-4.390781287988921e-54 -1.0585222760019123e-54  0.
-6.613947846463145e-54 -1.1647352979400428e-54  0.
-8.53252063956798e-54 -7.531832632403642e-55  0.
-9.340581407947264e-54 -6.093047952842202e-56  0.
-8.406231274486471e-54 1.04442358127547e-54  0.
-5.23677315387367e-54 1.7226948535455597e-54  0.
-3.0564451110215167e-54 3.872904114372099e-54  0.
0.0 3.4628557390660262e-56  0.
1.142676513208628e-55 7.964673380499949e-56  0.
1.9634385942124265e-55 2.4473374092768416e-57  0.
2.165488464894931e-55 1.774960924233276e-56  0.
1.9604393246782298e-55 -3.8247600526098046e-56  0.
1.3857149157179456e-55 -1.9234884648862342e-56  0.
8.600441755492466e-56 -3.3475601251758775e-56  0.
-3.82798110726527e-54 -3.881675765123679e-54  0.
-3.33995195556711e-53 -2.5700882498671958e-53  0.
-4.453642644521553e-52 -3.86328709595671e-52  0.
-3.061397968209979e-51 -2.229946352786756e-51  0.
-1.1763084160981483e-50 -6.47230441955815e-51  0.
-3.500590162813347e-50 -1.6772554174233833e-50  0.
-7.989165568645663e-50 -2.811356430304726e-50  0.
-1.5232739388769805e-49 -4.433132356342517e-50  0.
-2.4123024086600077e-49 -4.45693980429138e-50  0.
-3.2446982202356628e-49 -3.8655363854730306e-50  0.
-3.651695504439694e-49 -2.2937131322932534e-51  0.
-3.341459081191338e-49 3.5342744726803247e-50  0.
-2.112563809196413e-49 7.091811113043102e-50  0.
-1.2147477516940988e-49 1.5518639410748154e-49  0.
0.0 1.2916718869534775e-51  0.
1.1188593286908602e-51 -1.7260846840980582e-52  0.
1.770160705994593e-51 8.24141154009728e-52  0.
2.0789075995083907e-51 -5.154442709365351e-52  0.
1.674945897694254e-51 1.1152760476312792e-52  0.
1.2686327221062153e-51 -5.180162803460162e-52  0.
6.520108921381566e-52 -9.867947217441422e-53  0.
3.114736674702336e-52 -2.4969853926229176e-52  0.
-1.4008852165381334e-49 -1.4020953615109724e-49  0.
-1.1366540949047711e-48 -8.571798357127693e-49  0.
-1.7894751218293924e-47 -1.590618310895191e-47  0.
-1.2480076575732029e-46 -9.101540962243952e-47  0.
-4.487486419433473e-46 -2.3299809294587967e-46  0.
-1.2486866746143752e-45 -5.669318529040121e-46  0.
-2.6138646739674224e-45 -7.986880766684641e-46  0.
-4.5373795990911226e-45 -1.1244690602333186e-45  0.
-6.432568793474979e-45 -7.70974256572788e-46  0.
-7.551982423126725e-45 -3.5373484715688414e-46  0.
-7.129882309123419e-45 8.228097161077655e-46  0.
-4.52638749268095e-45 1.417771287306332e-45  0.
-2.6974745058885097e-45 3.4302682762256545e-45  0.
0.0 -2.23354452266543e-47  0.
-7.818722959105518e-48 1.45333843474356e-47  0.
-8.6474369796057e-48 -1.539417085305444e-47  0.
-1.0839393268461323e-47 1.3235594159369917e-47  0.
-3.4188285757437016e-48 -5.836003194803568e-48  0.
-2.926874165605989e-48 6.335292160933774e-48  0.
1.2741832832156911e-48 -2.1375166632539737e-48  0.
1.4302577886461068e-49 1.0059285845595632e-48  0.
-5.117660775652217e-49 -1.9415765196925783e-48  0.
-3.525769309805302e-45 -3.525300990869761e-45  0.
-2.7271277910423033e-44 -2.025369526870018e-44  0.
-4.389007798751054e-43 -3.915858871987191e-43  0.
-2.996641834330949e-42 -2.1670246108278672e-42  0.
-9.958728613321248e-42 -4.794688422688915e-42  0.
-2.563862218819583e-41 -1.089613768342993e-41  0.
-4.880845142029719e-41 -1.225870211006884e-41  0.
-7.584151062334464e-41 -1.479624727937021e-41  0.
-9.39344781883618e-41 -3.3665993664032314e-42  0.
-9.170658719132125e-41 6.25017453524972e-42  0.
-6.016964387103747e-41 2.0150494561576096e-41  0.
-3.4345580998613775e-41 4.4588193252423854e-41  0.
0.0 1.776629420967466e-43  0.
-3.149059854609032e-43 -4.915461627099202e-43  0.
-5.350641311133843e-43 2.690567470628304e-43  0.
-4.1495660726474664e-43 -1.4681063091730433e-43  0.
-3.2442647632477272e-43 2.361700434194905e-43  0.
-9.73031469469473e-44 -8.63943416604473e-45  0.
-4.55588782143855e-44 6.03133968853135e-44  0.
7.377274232448714e-45 -7.373489751322396e-45  0.
-5.145722014570356e-48 -1.0331318523241614e-47  0.
-3.4180798803980693e-44 -4.1218054490015644e-44  0.
-6.878582315335544e-41 -6.875866143271905e-41  0.
-5.199525444744292e-40 -3.832280660953387e-40  0.
-7.171289849525043e-39 -6.27352542913711e-39  0.
-4.605415470168638e-38 -3.260675562526729e-38  0.
-1.397761668022317e-37 -6.126552909603634e-38  0.
-3.3002910451853823e-37 -1.2865950499299377e-37  0.
-5.63330766880261e-37 -1.0522342828746188e-37  0.
-7.630436088458042e-37 -9.502146062605029e-38  0.
-7.892394477401631e-37 7.605715261793229e-38  0.
-5.17732287614194e-37 1.488756037143142e-37  0.
-3.1994335447471997e-37 4.091389513573454e-37  0.
0.0 -7.432652170860108e-39  0.
-4.7376566404691174e-39 2.7299857863536397e-39  0.
-5.6231666017537556e-39 -3.69214391080886e-39  0.
-5.740501137970185e-39 3.6383210530658845e-39  0.
-2.305684108221184e-39 -2.3263027694135942e-40  0.
-1.2077760550583897e-39 1.3384057221454215e-39  0.
6.571718475372315e-41 -6.558997698272058e-41  0.
7.566372628285599e-45 -2.2298605490607576e-44  0.
-1.6583839372364733e-46 -2.029914162525471e-46  0.
-1.6988997483102256e-43 -2.4491997705523163e-43  0.
-8.246241088421239e-40 -9.617508833054634e-40  0.
-1.2435413887139785e-36 -1.2426284285353576e-36  0.
-9.040948498562392e-36 -6.570984352275195e-36  0.
-8.611403563555927e-35 -7.055715908603643e-35  0.
-4.822332999212018e-34 -3.265392925237658e-34  0.
-1.436230208897034e-33 -6.238292134501255e-34  0.
-3.553364389632092e-33 -1.4937546801858893e-33  0.
-5.836560768032535e-33 -8.228576275101074e-34  0.
-7.271275788035862e-33 -4.982915812345154e-34  0.
-5.4312409043304045e-33 1.7147523724294915e-33  0.
-3.0438084376203055e-33 4.257783512675486e-33  0.
0.0 3.583570892850762e-34  0.
1.8151263733621745e-34 -1.8678694376409972e-34  0.
1.0848952944084497e-34 1.3150217202374755e-34  0.
1.1016189996561967e-34 -1.3946507888409754e-34  0.
-1.5120330193348245e-35 1.5968674699292689e-35  0.
4.002259187698793e-37 -3.971938754389441e-37  0.
4.3782971936622987e-41 -1.7467536791184602e-40  0.
1.8173672887258492e-43 -1.216107145567764e-43  0.
7.635159583409975e-44 -1.1544650680641278e-44  0.
-3.2495318920287445e-42 -3.735399474272706e-42  0.
-3.625941603328013e-39 -5.4061555598269044e-39  0.
-1.4287071439315826e-35 -1.6762520043184256e-35  0.
-2.0374884499941006e-32 -2.0355325173751498e-32  0.
-1.3495088375009566e-31 -9.393336810429204e-32  0.
-8.20314063882137e-31 -5.93382701846168e-31  0.
-4.327437419779796e-30 -2.885360382682208e-30  0.
-1.6808166184519364e-29 -9.88880183943516e-30  0.
-4.8776684922749816e-29 -2.303010309305516e-29  0.
-7.719434502150801e-29 -2.042474499332778e-30  0.
-6.631871887009298e-29 7.098813842023865e-30  0.
-5.197867621521955e-29 6.291122827107105e-29  0.
0.0 -2.5470630630571993e-30  0.
4.392587751623861e-30 6.18890690314821e-30  0.
4.439186852478823e-30 -5.018303681952407e-30  0.
-1.0323359790228967e-31 1.0450928072171104e-31  0.
1.6064904822222386e-33 -1.5800490322299462e-33  0.
1.2248455904243329e-37 -9.198093690794536e-37  0.
2.146133147990188e-39 -1.5139585702443393e-39  0.
5.136154754560537e-40 -2.9020794699646686e-40  0.
4.210618633065453e-40 2.518494719897258e-40  0.
6.196248965009211e-40 -1.7060210762961715e-40  0.
-4.1111368077581483e-38 -5.04456619934692e-38  0.
-5.518751070935733e-35 -8.608481256214891e-35  0.
-1.7181357247884497e-31 -2.128135473460868e-31  0.
-2.3796646264001655e-28 -2.3837776239776224e-28  0.
-1.395885129966382e-27 -9.530385074975516e-28  0.
-6.132205399670588e-27 -3.7876121390448354e-27  0.
-3.959947903355251e-26 -3.111828999783184e-26  0.
-2.171723755740754e-25 -1.131512869036753e-25  0.
-4.921423660149089e-25 -9.004520187964242e-26  0.
-4.362757126696244e-25 8.316940596993983e-26  0.
-3.328795418889729e-25 3.122492282396636e-25  0.
0.0 6.0158048980119075e-21  0.
5.610537219257884e-26 6.0156913771451604e-21  0.
-3.4488928055598e-28 6.015729838949129e-21  0.
4.077704090976475e-30 6.015729460735266e-21  0.
-2.0670239372019635e-35 6.015729464520467e-21  0.
1.5054033458120187e-35 6.015729464523531e-21  0.
4.435434103676229e-37 6.015729464523546e-21  0.
3.387665396271991e-37 6.015729464523548e-21  0.
1.0604135432906072e-37 6.0157294645235466e-21  0.
6.239936172104035e-37 6.015729464523548e-21  0.
1.5211942967710416e-37 6.0157294645235466e-21  0.
-3.567658308138329e-34 6.015729464523048e-21  0.
-5.795159584221058e-31 6.015729463557227e-21  0.
-1.431443352222929e-27 6.015727591142159e-21  0.
-1.705109971539508e-24 6.0140431857895876e-21  0.
-9.938871519718108e-24 6.010446928203187e-21  0.
-5.972976838065417e-23 5.9794765165912865e-21  0.
-2.5893424707762994e-22 5.694643750758573e-21  0.
-4.79918457837695e-22 4.741724673344452e-21  0.
-6.201999763349328e-22 3.506085577152101e-21  0.
-1.8827860346508654e-21 3.757996066210872e-21  0.
0.0 2.679644695691414e-18  0.
-7.200698250928624e-25 2.6798137598811007e-18  0.
5.443924130489958e-27 2.679813415301364e-18  0.
-1.5409967281251604e-30 2.6798134206504246e-18  0.
9.199213107124301e-32 2.6798134206570736e-18  0.
4.3937888171005534e-34 2.6798134206571688e-18  0.
4.007289143314021e-34 2.6798134206571688e-18  0.
5.113831371239417e-34 2.6798134206571695e-18  0.
4.653395026106709e-34 2.6798134206571688e-18  0.
4.74416226213181e-34 2.6798134206571688e-18  0.
4.599474432560477e-34 2.6798134206571688e-18  0.
2.3614183202716335e-35 2.679813420657168e-18  0.
-2.202943050145405e-30 2.6798134206534367e-18  0.
-8.061072113614243e-27 2.679813409222492e-18  0.
-7.398191514766671e-24 2.679801361347655e-18  0.
-7.385211391010396e-21 2.672353294067093e-18  0.
-2.48620432858203e-20 2.6405596115125842e-18  0.
-7.560840416994121e-20 2.541441428104941e-18  0.
-1.471668640870637e-19 2.3176338010673825e-18  0.
-2.5998143640298927e-19 1.938097293894209e-18  0.
-1.0141168535027583e-18 2.0064149473089025e-18  0.
0.0 8.215343881205477e-16  0.
4.872271247372942e-24 8.215338237997632e-16  0.
-1.3345500749124119e-27 8.215338251670631e-16  0.
3.234109359703884e-28 8.215338251722254e-16  0.
3.888358837812269e-32 8.215338251725484e-16  0.
2.5892351925354195e-32 8.215338251725486e-16  0.
1.578580359240063e-32 8.215338251725486e-16  0.
1.5257659197931912e-34 8.215338251725485e-16  0.
-2.5466301776657515e-32 8.215338251725485e-16  0.
5.318435948257517e-32 8.215338251725486e-16  0.
-3.063833544536512e-32 8.215338251725486e-16  0.
3.982045731055879e-32 8.215338251725484e-16  0.
-2.5555059646603964e-30 8.215338251725399e-16  0.
-8.126586918079885e-27 8.215338251421483e-16  0.
-7.98032483502682e-23 8.215337295353572e-16  0.
-4.732557413747417e-20 8.215008947340095e-16  0.
-5.612557258809618e-18 8.15904776948418e-16  0.
-1.6664104001226452e-17 7.938289590853589e-16  0.
-4.411314773151094e-17 7.336315245114554e-16  0.
-7.782097299980078e-17 6.202447622987331e-16  0.
-3.286754295652819e-16 6.478732893473628e-16  0.
0.0 1.7639451640169856e-13  0.
-2.9461453699955463e-24 1.763945179414631e-13  0.
5.306951044251854e-25 1.7639451795010317e-13  0.
-4.2846343075607197e-29 1.7639451795067231e-13  0.
2.0924974696080032e-29 1.7639451795067282e-13  0.
1.7830822062632466e-29 1.7639451795067282e-13  0.
1.5097041020179036e-29 1.7639451795067284e-13  0.
1.4350935785500144e-29 1.763945179506729e-13  0.
7.736186798763097e-30 1.7639451795067282e-13  0.
2.4604091663915282e-29 1.7639451795067287e-13  0.
5.837480591367427e-30 1.7639451795067284e-13  0.
2.2107911370831093e-29 1.7639451795067287e-13  0.
9.224540243093194e-30 1.7639451795067282e-13  0.
-2.5705989222165905e-26 1.7639451795061138e-13  0.
-2.4649897290781964e-22 1.7639451781785962e-13  0.
-1.650487198551063e-19 1.7639443375560634e-13  0.
-3.3631176851783295e-17 1.7637189244797505e-13  0.
-3.0334533895161954e-15 1.7334944570824347e-13  0.
-7.473725137876519e-15 1.6299057481515664e-13  0.
-1.789677400812437e-14 1.3962815922531146e-13  0.
-7.297299291413484e-14 1.4610149476314598e-13  0.
0.0 2.5058689391415495e-11  0.
3.6140526599710394e-22 2.5058689391336306e-11  0.
-5.306055366033398e-25 2.5058689391613188e-11  0.
7.216850541539064e-27 2.5058689391614115e-11  0.
9.025664202949924e-27 2.5058689391614115e-11  0.
9.364755265601735e-27 2.5058689391614115e-11  0.
8.412060438978884e-27 2.5058689391614115e-11  0.
8.055695029108311e-27 2.505868939161412e-11  0.
7.86062974748718e-27 2.5058689391614115e-11  0.
7.809225809191691e-27 2.5058689391614115e-11  0.
8.982478334903022e-27 2.5058689391614115e-11  0.
7.80578187287909e-27 2.505868939161412e-11  0.
9.551493145662769e-27 2.5058689391614115e-11  0.
-2.5076484714589368e-26 2.5058689391613983e-11  0.
-6.68994682392829e-22 2.5058689391275572e-11  0.
-3.958563330731207e-19 2.5058689243211658e-11  0.
-1.0424546582137624e-16 2.5058640960876605e-11  0.
-1.6608524752577304e-14 2.504802894097882e-11  0.
-1.0859590366548343e-12 2.396936431467913e-11  0.
-2.2402845230344702e-12 2.0940788854702298e-11  0.
-1.1363656778108773e-11 2.2130388749282575e-11  0.
0.0 2.1520170693731606e-09  0.
3.6622523757743244e-22 2.1520170693718665e-09  0.
-4.666493615426821e-25 2.1520170693715803e-09  0.
-1.3024128927535455e-26 2.1520170693715795e-09  0.
-9.050883292138491e-27 2.1520170693715786e-09  0.
2.752116928374904e-26 2.1520170693715795e-09  0.
6.940060104563349e-27 2.1520170693715795e-09  0.
-1.4414589969825977e-25 2.15201706937158e-09  0.
-8.170868277031201e-26 2.152017069371579e-09  0.
1.2757535457546687e-25 2.1520170693715795e-09  0.
-1.2981445983521508e-25 2.152017069371579e-09  0.
8.65437506905808e-26 2.1520170693715795e-09  0.
9.94722511643145e-26 2.1520170693715795e-09  0.
1.1705155985465028e-25 2.1520170693715803e-09  0.
-1.4049976518349966e-21 2.1520170693711543e-09  0.
-7.121976587736211e-19 2.1520170692024744e-09  0.
-2.180015808471342e-16 2.152017003634498e-09  0.
-4.480834448567418e-14 2.1519994749618925e-09  0.
-5.409934650772976e-12 2.1488064335096332e-09  0.
-2.4348222806093714e-10 1.9249185833927494e-09  0.
-9.609903408238308e-10 1.9747419770851047e-09  0.
0.0 9.465031915458559e-08  0.
-9.720702300986903e-25 9.465031915458538e-08  0.
-5.899295991016623e-25 9.465031915458538e-08  0.
-2.3382229859130667e-24 9.465031915458538e-08  0.
-1.671865260611998e-25 9.465031915458538e-08  0.
-6.663577253010678e-25 9.465031915458538e-08  0.
-2.3382229859130667e-24 9.465031915458538e-08  0.
-2.316727575419484e-24 9.465031915458539e-08  0.
-4.272809930335523e-24 9.465031915458538e-08  0.
3.559878815631691e-24 9.465031915458538e-08  0.
-6.129774559086705e-24 9.465031915458538e-08  0.
3.341342142280266e-24 9.465031915458538e-08  0.
-3.3031280791805622e-24 9.465031915458538e-08  0.
4.733767066475687e-24 9.465031915458542e-08  0.
-1.8967669638484687e-21 9.465031915458522e-08  0.
-1.0020586993975302e-18 9.465031915446494e-08  0.
-3.3308989152837395e-16 9.465031910568413e-08  0.
-7.845798691620836e-14 9.465030387693512e-08  0.
-1.2416834079269874e-11 9.464711094110791e-08  0.
-1.1565915260468381e-09 9.420750627017945e-08  0.
-5.0902662230114705e-08 9.430316125779807e-08  0.
0.0 1.4499999999999997e-06  0.
4.466268624777766e-24 1.4499999999999997e-06  0.
-1.9536939759723064e-24 1.4499999999999997e-06  0.
-8.447696323978053e-24 1.4499999999999997e-06  0.
5.844363275310802e-24 1.4499999999999997e-06  0.
-1.9536939759723064e-24 1.4499999999999997e-06  0.
-8.447696323978053e-24 1.4499999999999997e-06  0.
4.7409322033068816e-24 1.4499999999999997e-06  0.
-1.4784065661697534e-23 1.4499999999999997e-06  0.
7.826717798607888e-24 1.4499999999999997e-06  0.
-9.417378175133016e-24 1.4499999999999997e-06  0.
1.2796934380512987e-23 1.4499999999999997e-06  0.
-1.1325692951174428e-23 1.4499999999999997e-06  0.
8.182586261223869e-24 1.4499999999999997e-06  0.
-2.2039483216964863e-21 1.4499999999999997e-06  0.
-1.122429761908125e-18 1.4499999999999997e-06  0.
-3.8244053248032005e-16 1.4499999999999997e-06  0.
-9.443713424106198e-14 1.4499999999999997e-06  0.
-1.61599991787605e-11 1.4499999999999997e-06  0.
-1.8296735936900608e-09 1.4499999999999997e-06  0.
-9.990035310424686e-08 1.4499999999999997e-06  0.
</DataArray>
<DataArray type="Float64" Name="sigma_xx" NumberOfComponents="1" format="ascii" >
0.0 
0.0 
0.0 
0.0 
0.0 
0.0 
0.0 
0.0 
0.0 
0.0 
0.0 
0.0 
0.0 
0.0 
0.0 
0.0 
0.0 
0.0 
0.0 
0.0 
0.0 
0.0 
0.0 
0.0 
0.0 
0.0 
0.0 
0.0 
0.0 
0.0 
0.0 
0.0 
0.0 
0.0 
0.0 
0.0 
0.0 
0.0 
0.0 
0.0 
0.0 
0.0 
0.0 
0.0 
0.0 
0.0 
0.0 
0.0 
0.0 
0.0 
0.0 
0.0 
0.0 
0.0 
0.0 
0.0 
0.0 
0.0 
0.0 
0.0 
0.0 
0.0 
0.0 
0.0 
0.0 
0.0 
0.0 
0.0 
0.0 
0.0 
0.0 
0.0 
0.0 
0.0 
0.0 
0.0 
0.0 
0.0 
0.0 
0.0 
0.0 
0.0 
0.0 
0.0 
0.0 
0.0 
0.0 
0.0 
0.0 
0.0 
0.0 
0.0 
0.0 
0.0 
0.0 
0.0 
0.0 
0.0 
0.0 
0.0 
0.0 
0.0 
0.0 
0.0 
0.0 
0.0 
0.0 
0.0 
0.0 
0.0 
0.0 
0.0 
0.0 
0.0 
0.0 
0.0 
0.0 
0.0 
0.0 
0.0 
0.0 
0.0 
0.0 
0.0 
0.0 
0.0 
0.0 
0.0 
0.0 
0.0 
0.0 
0.0 
0.0 
0.0 
0.0 
0.0 
0.0 
0.0 
0.0 
0.0 
0.0 
0.0 
0.0 
0.0 
0.0 
0.0 
0.0 
0.0 
0.0 
0.0 
0.0 
0.0 
0.0 
0.0 
0.0 
0.0 
0.0 
0.0 
0.0 
0.0 
0.0 
0.0 
0.0 
0.0 
0.0 
0.0 
0.0 
0.0 
0.0 
0.0 
0.0 
0.0 
0.0 
0.0 
0.0 
0.0 
0.0 
0.0 
0.0 
0.0 
0.0 
0.0 
0.0 
0.0 
0.0 
0.0 
0.0 
0.0 
0.0 
0.0 
0.0 
0.0 
0.0 
0.0 
0.0 
0.0 
0.0 
0.0 
0.0 
0.0 
0.0 
0.0 
0.0 
0.0 
0.0 
0.0 
0.0 
0.0 
0.0 
0.0 
0.0 
0.0 
0.0 
0.0 
0.0 
0.0 
0.0 
0.0 
0.0 
0.0 
0.0 
0.0 
0.0 
0.0 
0.0 
0.0 
0.0 
0.0 
0.0 
0.0 
0.0 
0.0 
0.0 
0.0 
0.0 
0.0 
0.0 
0.0 
0.0 
0.0 
0.0 
0.0 
0.0 
0.0 
0.0 
0.0 
0.0 
0.0 
0.0 
0.0 
0.0 
0.0 
0.0 
0.0 
0.0 
0.0 
0.0 
0.0 
0.0 
0.0 
0.0 
0.0 
0.0 
0.0 
0.0 
0.0 
0.0 
0.0 
0.0 
0.0 
0.0 
0.0 
0.0 
7.460698725481049e-06 
7.460698725481049e-06 
7.460698725481049e-06 
7.460698725481049e-06 
7.460698725481049e-06 
7.460698725481049e-06 
7.460698725481049e-06 
7.460698725481049e-06 
7.460698725481049e-06 
7.460698725481049e-06 
7.460698725481049e-06 
7.460698725481049e-06 
7.460698725481049e-06 
7.460698725481049e-06 
7.460698725481049e-06 
7.460698725481049e-06 
7.310818617156653e-06 
6.777911565336578e-06 
6.006306563222095e-06 
4.6684878185487816e-06 
3.7192471324942727e-06 
0.0023003821070233235 
0.0023003821070233235 
0.0023003821070233235 
0.0023003821070233235 
0.0023003821070233235 
0.0023003821070233235 
0.0023003821070233235 
0.0023003821070233235 
0.0023003821070233235 
0.0023003821070233235 
0.0023003821070233235 
0.0023003821070233235 
0.0023003821070233235 
0.0023003821070233235 
0.002300309942526723 
0.0022891299966687475 
0.0022513046982197684 
0.0021454893417427448 
0.0019367729642283385 
0.0014631851286139857 
0.0011192158311246199 
0.4938973230395048 
0.4938973230395048 
0.4938973230395048 
0.4938973230395048 
0.4938973230395048 
0.4938973230395048 
0.4938973230395048 
0.4938973230395048 
0.4938973230395048 
0.4938973230395048 
0.4938973230395048 
0.4938973230395048 
0.4938973230395048 
0.4938973230395048 
0.4938969622170218 
0.4938230879769632 
0.4877475978659616 
0.4704634792851435 
0.42778310338498204 
0.3259481518025352 
0.2555114342328578 
70.16203149579067 
70.16203149579067 
70.16203149579067 
70.16203149579067 
70.16203149579067 
70.16203149579067 
70.16203149579067 
70.16203149579067 
70.16203149579067 
70.16203149579067 
70.16203149579067 
70.16203149579067 
70.16203149579067 
70.16203149579067 
70.16203049103883 
70.16177138718935 
70.12503023262614 
67.95364437262027 
62.81776426253491 
48.05342288527468 
36.2900588135595 
6025.166558054626 
6025.166558054626 
6025.166558054626 
6025.166558054626 
6025.166558054626 
6025.166558054626 
6025.166558054626 
6025.166558054626 
6025.166558054626 
6025.166558054626 
6025.166558054626 
6025.166558054626 
6025.166558054626 
6025.166558054626 
6025.166555900793 
6025.1659300458705 
6025.050939273411 
6013.042564187441 
5539.4669876279695 
4311.908393384021 
3546.0313676849414 
264974.69859001465 
264974.69859001465 
264974.69859001465 
264974.69859001465 
264974.69859001465 
264974.69859001465 
264974.69859001465 
264974.69859001465 
264974.69859001465 
264974.69859001465 
264974.69859001465 
264974.69859001465 
264974.69859001465 
264974.69859001465 
264974.69858633983 
264974.69745449524 
264974.45527343114 
264941.5905726565 
262525.32103111787 
195466.1779914101 
130790.68084536064 
4059141.832546563 
4059141.832546563 
4059141.832546563 
4059141.832546563 
4059141.832546563 
4059141.832546563 
4059141.832546563 
4059141.832546563 
4059141.832546563 
4059141.832546563 
4059141.832546563 
4059141.832546563 
4059141.832546563 
4059141.832546563 
4059141.8325416613 
4059141.8309462704 
4059141.459979635 
4059083.7877811296 
4053604.2860561656 
3796201.248949511 
3544220.410745462 
7600245.260175018 
7600245.260175018 
7600245.260175018 
7600245.260175018 
7600245.260175018 
7600245.260175018 
7600245.260175018 
7600245.260175018 
7600245.260175018 
7600245.260175018 
7600245.260175018 
7600245.260175018 
7600245.260175018 
7600245.260175018 
7600245.260169689 
7600245.258383706 
7600244.832237698 
7600175.508906111 
7593112.080201499 
7209998.50083647 
6833879.451209821 
</DataArray>
<DataArray type="Float64" Name="sigma_yy" NumberOfComponents="1" format="ascii" >
0.0 
0.0 
0.0 
0.0 
0.0 
0.0 
0.0 
0.0 
0.0 
0.0 
0.0 
0.0 
0.0 
0.0 
0.0 
0.0 
0.0 
0.0 
0.0 
0.0 
0.0 
0.0 
0.0 
0.0 
0.0 
0.0 
0.0 
0.0 
0.0 
0.0 
0.0 
0.0 
0.0 
0.0 
0.0 
0.0 
0.0 
0.0 
0.0 
0.0 
0.0 
0.0 
0.0 
0.0 
0.0 
0.0 
0.0 
0.0 
0.0 
0.0 
0.0 
0.0 
0.0 
0.0 
0.0 
0.0 
0.0 
0.0 
0.0 
0.0 
0.0 
0.0 
0.0 
0.0 
0.0 
0.0 
0.0 
0.0 
0.0 
0.0 
0.0 
0.0 
0.0 
0.0 
0.0 
0.0 
0.0 
0.0 
0.0 
0.0 
0.0 
0.0 
0.0 
0.0 
0.0 
0.0 
0.0 
0.0 
0.0 
0.0 
0.0 
0.0 
0.0 
0.0 
0.0 
0.0 
0.0 
0.0 
0.0 
0.0 
0.0 
0.0 
0.0 
0.0 
0.0 
0.0 
0.0 
0.0 
0.0 
0.0 
0.0 
0.0 
0.0 
0.0 
0.0 
0.0 
0.0 
0.0 
0.0 
0.0 
0.0 
0.0 
0.0 
0.0 
0.0 
0.0 
0.0 
0.0 
0.0 
0.0 
0.0 
0.0 
0.0 
0.0 
0.0 
0.0 
0.0 
0.0 
0.0 
0.0 
0.0 
0.0 
0.0 
0.0 
0.0 
0.0 
0.0 
0.0 
0.0 
0.0 
0.0 
0.0 
0.0 
0.0 
0.0 
0.0 
0.0 
0.0 
0.0 
0.0 
0.0 
0.0 
0.0 
0.0 
0.0 
0.0 
0.0 
0.0 
0.0 
0.0 
0.0 
0.0 
0.0 
0.0 
0.0 
0.0 
0.0 
0.0 
0.0 
0.0 
0.0 
0.0 
0.0 
0.0 
0.0 
0.0 
0.0 
0.0 
0.0 
0.0 
0.0 
0.0 
0.0 
0.0 
0.0 
0.0 
0.0 
0.0 
0.0 
0.0 
0.0 
0.0 
0.0 
0.0 
0.0 
0.0 
0.0 
0.0 
0.0 
0.0 
0.0 
0.0 
0.0 
0.0 
0.0 
0.0 
0.0 
0.0 
0.0 
0.0 
0.0 
0.0 
0.0 
0.0 
0.0 
0.0 
0.0 
0.0 
0.0 
0.0 
0.0 
0.0 
0.0 
0.0 
0.0 
0.0 
0.0 
0.0 
0.0 
0.0 
0.0 
0.0 
0.0 
0.0 
0.0 
0.0 
0.0 
0.0 
0.0 
0.0 
0.0 
0.0 
0.0 
0.0 
0.0 
0.0 
0.0 
0.0 
0.0 
0.0 
0.0 
0.0 
0.0 
0.0 
0.0 
0.0 
0.0 
0.0 
0.0 
0.0 
0.0 
0.0 
0.0 
1.385558334732195e-05 
1.385558334732195e-05 
1.385558334732195e-05 
1.385558334732195e-05 
1.385558334732195e-05 
1.385558334732195e-05 
1.385558334732195e-05 
1.385558334732195e-05 
1.385558334732195e-05 
1.385558334732195e-05 
1.385558334732195e-05 
1.385558334732195e-05 
1.385558334732195e-05 
1.385558334732195e-05 
1.385558334732195e-05 
1.385558334732195e-05 
1.36723965482588e-05 
1.2873035970528688e-05 
1.1535217225855375e-05 
1.0097478408965797e-05 
9.381384558082571e-06 
0.0042721381987576015 
0.0042721381987576015 
0.0042721381987576015 
0.0042721381987576015 
0.0042721381987576015 
0.0042721381987576015 
0.0042721381987576015 
0.0042721381987576015 
0.0042721381987576015 
0.0042721381987576015 
0.0042721381987576015 
0.0042721381987576015 
0.0042721381987576015 
0.0042721381987576015 
0.00427209934095174 
0.004260852781712287 
0.004209638193586328 
0.00405099842559764 
0.00370249386705268 
0.003208189269798822 
0.002943756349793602 
0.9172378856447947 
0.9172378856447947 
0.9172378856447947 
0.9172378856447947 
0.9172378856447947 
0.9172378856447947 
0.9172378856447947 
0.9172378856447947 
0.9172378856447947 
0.9172378856447947 
0.9172378856447947 
0.9172378856447947 
0.9172378856447947 
0.9172378856447947 
0.9172376913557654 
0.9171770065652394 
0.9110739052076153 
0.8866045342337258 
0.8201445467204137 
0.7185939676634944 
0.6650766160021248 
130.30091563503984 
130.30091563503984 
130.30091563503984 
130.30091563503984 
130.30091563503984 
130.30091563503984 
130.30091563503984 
130.30091563503984 
130.30091563503984 
130.30091563503984 
130.30091563503984 
130.30091563503984 
130.30091563503984 
130.30091563503984 
130.30091519650176 
130.30073642839034 
130.2710984585342 
128.08666550179203 
120.52464310463583 
107.0860379481786 
99.05448187241815 
11189.595036387165 
11189.595036387165 
11189.595036387165 
11189.595036387165 
11189.595036387165 
11189.595036387165 
11189.595036387165 
11189.595036387165 
11189.595036387165 
11189.595036387165 
11189.595036387165 
11189.595036387165 
11189.595036387165 
11189.595036387165 
11189.595035432374 
11189.59465897795 
11189.519270926594 
11180.088533027654 
10712.552228384075 
9681.317095844297 
9108.262542600885 
492095.8688100274 
492095.8688100274 
492095.8688100274 
492095.8688100274 
492095.8688100274 
492095.8688100274 
492095.8688100274 
492095.8688100274 
492095.8688100274 
492095.8688100274 
492095.8688100274 
492095.8688100274 
492095.8688100274 
492095.8688100274 
492095.8688081511 
492095.86819838884 
492095.7335311226 
492076.0769875992 
490368.0708150809 
453540.0589574467 
418400.53078818775 
7538406.260443618 
7538406.260443618 
7538406.260443618 
7538406.260443618 
7538406.260443618 
7538406.260443618 
7538406.260443618 
7538406.260443618 
7538406.260443618 
7538406.260443618 
7538406.260443618 
7538406.260443618 
7538406.260443618 
7538406.260443618 
7538406.260441082 
7538406.259643054 
7538406.076232256 
7538378.009882057 
7535641.165786531 
7397414.782955482 
7261897.360485063 
14114741.197467891 
14114741.197467891 
14114741.197467891 
14114741.197467891 
14114741.197467891 
14114741.197467891 
14114741.197467891 
14114741.197467891 
14114741.197467891 
14114741.197467891 
14114741.197467891 
14114741.197467891 
14114741.197467891 
14114741.197467891 
14114741.197465226 
14114741.196594447 