<?xml version="1.0"?>
<VTKFile type="UnstructuredGrid" version="0.1" byte_order="LittleEndian" compressor="vtkZLibDataCompressor">
<UnstructuredGrid>
<Piece NumberOfPoints="441" NumberOfCells="400">
<PointData>
<DataArray type="Float64" Name="displacement" NumberOfComponents="3" format="ascii" >
0.0 1.2338953311801755e-35  0.
1.3865719947330828e-35 1.4679095740345333e-36  0.
1.9462603441144322e-35 4.2596814395268367e-36  0.
1.8425987642506805e-35 -5.407506622983194e-36  0.
8.43070318506698e-36 -4.532004076725121e-36  0.
-7.02756856164846e-36 -1.0931819470698001e-35  0.
-6.039061910168139e-35 -4.236717386400126e-35  0.
-3.2085130508693308e-34 -2.175180503296413e-34  0.
-2.4377037104607942e-33 -1.897272710826965e-33  0.
-1.436700417760753e-32 -1.0024230318072779e-32  0.
-4.878808753900843e-32 -2.445580531811284e-32  0.
-1.147684008558619e-31 -4.1256440646957553e-32  0.
-2.047660118267676e-31 -4.930798850804415e-32  0.
-2.981641865208372e-31 -4.354721059519692e-32  0.
-3.710670141082599e-31 -2.9413403898464157e-32  0.
-4.266274675205641e-31 -2.6527100417450133e-32  0.
-4.676183149070498e-31 -1.410828332897e-32  0.
-4.8346200596789315e-31 -2.321522480441185e-33  0.
-4.354281560009748e-31 5.37682159134744e-32  0.
-2.7231575637128023e-31 8.63716236799881e-32  0.
-1.6178568026717046e-31 2.0597655623153716e-31  0.
0.0 -3.622045910005123e-34  0.
8.473912593777861e-33 8.695190965581811e-33  0.
1.2391371266031913e-32 -4.460324687734976e-33  0.
8.184966103939379e-33 2.6134995470761473e-35  0.
4.548778818743194e-33 -3.589581144241813e-33  0.
-6.1682393357421495e-34 -1.6048167608705528e-33  0.
-5.5896414074800166e-33 -3.4209393003055173e-33  0.
-2.986489581808513e-32 -2.1115851031841065e-32  0.
-1.5511427603631618e-31 -1.0632171600654597e-31  0.
-1.0322063335455008e-30 -7.820459421774333e-31  0.
-7.29834144130432e-30 -5.532653931077742e-30  0.
-2.847687044464855e-29 -1.5477051030923736e-29  0.
-5.942011585891288e-29 -1.636342502457324e-29  0.
-9.368244101172576e-29 -1.7025533617111352e-29  0.
-1.1005720297340322e-28 5.542456781939702e-31  0.
-1.1228979145331857e-28 -3.6401536827845636e-30  0.
-1.2369815639781092e-28 -7.425433568698891e-30  0.
-1.3907747581300643e-28 -8.017145106245584e-30  0.
-1.4073934228456752e-28 7.935770884340122e-30  0.
-9.407456956966133e-29 2.923103068392083e-29  0.
-5.649534098743205e-29 7.33487353248071e-29  0.
0.0 1.6705439929192465e-29  0.
1.1870110449621356e-29 -5.3816622681027305e-30  0.
9.627613696608272e-30 4.166385452535722e-30  0.
7.900589375078924e-30 -6.476864947131812e-30  0.
6.844673697843687e-31 -6.25539162220472e-31  0.
-1.1467223127748343e-31 -1.860195056208414e-31  0.
-1.2645412893464659e-30 -9.743528691129132e-31  0.
-4.746294574472785e-30 -2.556129759008358e-30  0.
-2.660644637203428e-29 -1.955647629036159e-29  0.
-1.4085041171971356e-28 -9.576516008298632e-29  0.
-6.731608561585532e-28 -4.522120683940662e-28  0.
-6.318772719272918e-27 -5.176863192202029e-27  0.
-2.7948880739275763e-26 -1.7943853970153385e-26  0.
-5.320341243264756e-26 -4.73303684118311e-27  0.
-5.899130461398675e-26 -1.0420640732741918e-27  0.
-4.765954052956878e-26 9.773833929522487e-27  0.
-4.861324820741718e-26 -1.0325439204991844e-26  0.
-7.347060560297375e-26 -1.346045631866556e-26  0.
-8.959180773140022e-26 -9.343892487576818e-28  0.
-6.537476924270929e-26 1.671761861765204e-26  0.
-4.453094937575414e-26 5.53917309398293e-26  0.
0.0 4.8732501977898554e-27  0.
1.3966767224312748e-26 5.925100246092207e-27  0.
8.133260762043618e-27 -7.906623429187368e-27  0.
4.679055001136095e-28 -4.330156463739283e-28  0.
2.1193232113306172e-29 -2.154718436435737e-29  0.
-1.1574936268350453e-29 -1.2898129580529433e-29  0.
-1.149839784567388e-28 -9.285338073830677e-29  0.
-1.0662129309799795e-27 -8.68903426171387e-28  0.
-3.604351696787544e-27 -1.7113369760568087e-27  0.
-1.9727596153638556e-26 -1.4656069151378154e-26  0.
-1.0087589736559744e-25 -7.087161147807983e-26  0.
-3.3763047919059124e-25 -1.7118959207710414e-25  0.
-3.6928097692610986e-24 -3.384760374294522e-24  0.
-2.160442454872123e-23 -9.459848161270618e-24  0.
-2.4367103192835098e-23 7.12003785853815e-24  0.
-1.0319529273756192e-23 2.0815315636402494e-24  0.
-1.2440306625347496e-23 -3.946198138290614e-24  0.
-2.859751732269444e-23 -8.411001227685065e-24  0.
-4.1981776480244155e-23 -2.0944043042674815e-24  0.
-3.531969205613411e-23 2.6170278813040406e-24  0.
-3.430253814578489e-23 3.147403525571982e-23  0.
0.0 6.397386412810089e-20  0.
5.0745830446940286e-24 6.413238224496182e-20  0.
1.6431887904927504e-25 6.413525911761149e-20  0.
5.664779011491442e-27 6.413543241641178e-20  0.
2.7963910923858433e-28 6.413543798173993e-20  0.
-5.659801173326936e-28 6.413543775107279e-20  0.
-6.331015390425422e-27 6.413543295647904e-20  0.
-5.881114020601176e-26 6.413538934614676e-20  0.
-9.613301897996921e-25 6.413466501528085e-20  0.
-2.7797000135302466e-24 6.413451665506784e-20  0.
-1.1815718296510039e-23 6.412769101605824e-20  0.
-8.00176225219171e-23 6.408855327023784e-20  0.
-1.6353681233260174e-22 6.39636051643831e-20  0.
-1.1045166091666198e-21 6.305284466249354e-20  0.
-1.7101179417258002e-21 5.723011509307798e-20  0.
-1.2492088127541276e-21 5.499918390779148e-20  0.
-1.9197620594987697e-21 5.3027291338265067e-20  0.
-3.4690068417887064e-21 4.785863665269815e-20  0.
-4.646784710454984e-21 3.9666487359553495e-20  0.
-5.690956970576073e-21 2.923395771260979e-20  0.
-1.5082739492571586e-20 2.925517038029586e-20  0.
0.0 2.5097930611605908e-18  0.
-3.8431811554511733e-23 2.5102324907639863e-18  0.
7.990472297529048e-25 2.5102075780841026e-18  0.
1.3314310113697229e-26 2.5102086352641105e-18  0.
-7.620623739026582e-28 2.5102086607484943e-18  0.
-2.4051895188740976e-27 2.510208657680964e-18  0.
-1.8756192121289324e-25 2.5102084680297563e-18  0.
-2.572462580354691e-24 2.5102063032739582e-18  0.
-2.3572178956547968e-23 2.5101886207053984e-18  0.
-3.1693227026606355e-22 2.5095893650415552e-18  0.
-1.1172196423946868e-21 2.5085821473768557e-18  0.
-3.285216378307005e-21 2.5037681643440337e-18  0.
-7.934318404018153e-21 2.4913385715319933e-18  0.
-1.6894380001297434e-20 2.4715141405834574e-18  0.
-3.2998985307308744e-20 2.4287824337914637e-18  0.
-5.428732769065072e-20 2.347992250189077e-18  0.
-8.850824722647592e-20 2.2065033041584883e-18  0.
-1.260160759588573e-19 2.0079722038988274e-18  0.
-1.7341688664124746e-19 1.7206516438609768e-18  0.
-2.2626529628714096e-19 1.3692906485255013e-18  0.
-7.257653297984503e-19 1.3920271822703916e-18  0.
0.0 8.091683801840489e-17  0.
-6.119932487023012e-23 8.092010288166905e-17  0.
-4.846672202710661e-24 8.092029700509203e-17  0.
-4.433034015747335e-26 8.092029378750687e-17  0.
-8.626760947227655e-27 8.092029381708726e-17  0.
-4.329268106559711e-26 8.092029375952292e-17  0.
-1.2542579571980979e-24 8.092029228758456e-17  0.
-1.0517386387982441e-22 8.092019660076642e-17  0.
-9.856892402637091e-22 8.091912515688274e-17  0.
-7.377833397362223e-21 8.091198955404548e-17  0.
-2.871879998446222e-20 8.087852097449881e-17  0.
-8.004898415205354e-20 8.077837371387725e-17  0.
-2.0487949970488841e-19 8.051938302315533e-17  0.
-4.59380785279776e-19 7.990275404766271e-17  0.
-9.2154232282286e-19 7.861312655934493e-17  0.
-1.657031434045457e-18 7.620430034801686e-17  0.
-2.7160060463455036e-18 7.210122362381178e-17  0.
-4.067069976945258e-18 6.573866998711043e-17  0.
-5.619028320316676e-18 5.666682655830888e-17  0.
-7.548368482276942e-18 4.5067038913673614e-17  0.
-2.4231721378661475e-17 4.5958809888284715e-17  0.
0.0 2.2648290253991584e-15  0.
-8.263230878084013e-22 2.264828182538281e-15  0.
7.577609239610048e-24 2.2648273525578573e-15  0.
-5.788360525657858e-25 2.264827347844861e-15  0.
1.198198169592731e-26 2.2648273472092407e-15  0.
-1.2880012850112223e-25 2.264827346991495e-15  0.
-2.2262530602252522e-23 2.264827323506264e-15  0.
-8.51696636762076e-22 2.2648263595628244e-15  0.
-1.9354404669220254e-20 2.2648097065428726e-15  0.
-1.150038219083762e-19 2.264692875972426e-15  0.
-4.909867038880948e-19 2.2641543288404134e-15  0.
-1.6098322126577013e-18 2.262261340043733e-15  0.
-4.5104402521925806e-18 2.256691018391974e-15  0.
-1.0829443642384435e-17 2.2426313744091058e-15  0.
-2.290803624537841e-17 2.211566246678966e-15  0.
-4.3086968979317395e-17 2.1505585098922908e-15  0.
-7.311473735256168e-17 2.0428254031071067e-15  0.
-1.12602358139197e-16 1.8702684250070073e-15  0.
-1.5881706021836693e-16 1.6182879255444299e-15  0.
-2.1718689771795551e-16 1.2920141141412795e-15  0.
-6.981025424786974e-16 1.3222090668803953e-15  0.
0.0 5.440668301731937e-14  0.
-4.267063533710011e-22 5.4406674118458456e-14  0.
-3.039726650729318e-23 5.44066758069757e-14  0.
1.3667693286822847e-24 5.440667579040832e-14  0.
3.644892805568068e-26 5.4406675790401675e-14  0.
-9.34926147261401e-25 5.4406675789172225e-14  0.
-7.268458353781001e-23 5.440667565431826e-14  0.
-9.411647017231822e-21 5.440666686708224e-14  0.
-1.4770219501097782e-19 5.440655105387873e-14  0.
-1.277839484600398e-18 5.4405371617310195e-14  0.
-6.574968929138047e-18 5.439865521894381e-14  0.
-2.5949834033579876e-17 5.4370136956648395e-14  0.
-8.086341295690666e-17 5.4275004916815716e-14  0.
-2.128263541442752e-16 5.401069850126706e-14  0.
-4.796546954591418e-16 5.338303310208384e-14  0.
-9.52365070863821e-16 5.207802139711234e-14  0.
-1.679934233536464e-15 4.966968477495538e-14  0.
-2.670434516819479e-15 4.567808803603926e-14  0.
-3.853604004911043e-15 3.9696246371825484e-14  0.
-5.37933380044647e-15 3.1826934637917664e-14  0.
-1.7296834720324558e-14 3.270447472456939e-14  0.
0.0 1.1075274523492533e-12  0.
-9.244732757407214e-22 1.107527457879852e-12  0.
7.381705712330355e-23 1.1075274561648232e-12  0.
1.6543595272943942e-24 1.1075274561697322e-12  0.
3.983455300829708e-26 1.1075274561724625e-12  0.
-3.8547446815449485e-24 1.1075274561663562e-12  0.
-8.581781507539084e-22 1.1075274551995373e-12  0.
-4.4761416313510904e-20 1.1075274274670407e-12  0.
-7.317618117292064e-19 1.1075269210867657e-12  0.
-8.447042612581893e-18 1.1075203439620845e-12  0.
-6.666507654147614e-17 1.1074597932186777e-12  0.
-3.164727470544387e-16 1.1071377069035066e-12  0.
-1.1667022502586734e-15 1.1058564806780469e-12  0.
-3.3914055004418706e-15 1.1018563590019875e-12  0.
-8.341497822156802e-15 1.0914436098075167e-12  0.
-1.7551964235952555e-14 1.0682871927269618e-12  0.
-3.253113409268317e-14 1.0232451212288148e-12  0.
-5.3490325307171865e-14 9.455792143360605e-13  0.
-7.936647746628518e-14 8.256875543354441e-13  0.
-1.1330387082645056e-13 6.651912451634318e-13  0.
-3.641643848614891e-13 6.869316274407569e-13  0.
0.0 1.8816290595883307e-11  0.
-3.3228562551891755e-22 1.8816290605163388e-11  0.
1.759970601231001e-23 1.8816290606320617e-11  0.
-1.0370756859368165e-24 1.8816290606455667e-11  0.
-6.482279521432517e-26 1.8816290606458736e-11  0.
-1.5773218187118223e-23 1.881629060643155e-11  0.
-4.5105603337615204e-21 1.881629060333146e-11  0.
-1.5133989499231122e-19 1.881629052201144e-11  0.
-2.791607268823785e-18 1.8816288857937946e-11  0.
-3.946720292098633e-17 1.881626235941053e-11  0.
-4.1083886933471084e-16 1.8815947735840298e-11  0.
-2.9095525719279903e-15 1.8813332537560936e-11  0.
-1.269818831637247e-14 1.880048920417231e-11  0.
-4.3330886213581845e-14 1.8753018364356885e-11  0.
-1.1674694926532338e-13 1.8615086122248018e-11  0.
-2.66575242575273e-13 1.8280813975745457e-11  0.
-5.201704796627521e-13 1.758920259751541e-11  0.
-8.93951895587761e-13 1.6339075112996556e-11  0.
-1.3649486838281049e-12 1.4342599075935906e-11  0.
-2.0040610648875123e-12 1.1619080381127582e-11  0.
-6.417710592716543e-12 1.2070640118811421e-11  0.
0.0 2.619600540879138e-10  0.
1.7255992736870762e-22 2.619600540740949e-10  0.
-2.0972614253075744e-22 2.619600540748893e-10  0.
-4.56050500938437e-25 2.6196005407475447e-10  0.
-2.3007972642504604e-25 2.619600540747553e-10  0.
-3.9463514127502234e-23 2.619600540746648e-10  0.
-1.4518440533651064e-20 2.6196005406724455e-10  0.
-4.250244900039257e-19 2.6196005385911055e-10  0.
-8.674280515750783e-18 2.6196004936763915e-10  0.
-1.4223894338490823e-16 2.6195996721604275e-10  0.
-1.798590116633893e-15 2.619587913204991e-10  0.
-1.6619291221451578e-14 2.619463090077929e-10  0.
-1.0451235431123784e-13 2.6185362824000194e-10  0.
-4.1609560831730515e-13 2.614365191817519e-10  0.
-1.303103375986226e-12 2.600153264340045e-10  0.
-3.228544128812353e-12 2.562012672233515e-10  0.
-6.7878737995006515e-12 2.4766337540704156e-10  0.
-1.218692446657002e-11 2.3135879722699807e-10  0.
-1.933800973984902e-11 2.042631451028259e-10  0.
-2.9230593042681116e-11 1.6654993184672462e-10  0.
-9.308979691281315e-11 1.7434433430775337e-10  0.
0.0 2.922383805035818e-09  0.
-6.062317367101463e-21 2.9223838050269077e-09  0.
5.252992365106915e-22 2.9223838050241813e-09  0.
-8.21732273198115e-25 2.92238380502464e-09  0.
-6.590524397652489e-26 2.92238380502464e-09  0.
-1.3608124523750493e-22 2.9223838050242834e-09  0.
-3.7380437409518187e-20 2.92238380500793e-09  0.
-1.0223919581284666e-18 2.9223838045905947e-09  0.
-2.2771403027758264e-17 2.9223837943881337e-09  0.
-4.1722198941115413e-16 2.9223835874566046e-09  0.
-6.079199958718722e-15 2.9223802076762887e-09  0.
-6.776522459412605e-14 2.922337262758093e-09  0.
-5.487425540501596e-13 2.921934560762651e-09  0.
-3.0251628824211866e-12 2.919298327108974e-09  0.
-1.0884934699574794e-11 2.9085284133018823e-09  0.
-3.095089285229206e-11 2.875037676569854e-09  0.
-6.98314102252709e-11 2.7928113085371533e-09  0.
-1.3385284345986706e-10 2.624503140210636e-09  0.
-2.2011043011209184e-10 2.3317933242159425e-09  0.
-3.4609096496311834e-10 1.9160951151038144e-09  0.
-1.086826294155002e-09 2.024941753969028e-09  0.
0.0 2.5408386791857382e-08  0.
-5.804690269999771e-21 2.5408386791860678e-08  0.
4.837371202838321e-22 2.5408386791861247e-08  0.
-9.762605708729182e-24 2.5408386791860658e-08  0.
2.0806880375123673e-24 2.5408386791860635e-08  0.
-6.874249211178219e-22 2.54083867918602e-08  0.
-7.644782045069895e-20 2.5408386791837272e-08  0.
-2.1574553771074565e-18 2.540838679108063e-08  0.
-5.163080307491066e-17 2.540838677128931e-08  0.
-1.0303030340862252e-15 2.5408386336236997e-08  0.
-1.6700920992456277e-14 2.5408378480344314e-08  0.
-2.1346519561900891e-13 2.5408265091316498e-08  0.
-2.068186779441167e-12 2.540700251622459e-08  0.
-1.4447502267185044e-11 2.539669589374005e-08  0.
-6.874584384530593e-11 2.5338176389296913e-08  0.
-2.209659207582882e-10 2.5123767807870368e-08  0.
-5.626120647072643e-10 2.452317730254573e-08  0.
-1.1424514238995875e-09 2.3191355871879603e-08  0.
-1.9844474575171028e-09 2.0744170531675677e-08  0.
-3.2379259858836953e-09 1.720771165822863e-08  0.
-9.967628151099535e-09 1.842328554384949e-08  0.
0.0 1.6624252638511765e-07  0.
-8.045276744343973e-23 1.6624252638512745e-07  0.
1.7345410214908196e-22 1.662425263851235e-07  0.
3.350992027426569e-23 1.6624252638512432e-07  0.
3.347916926741643e-23 1.662425263851243e-07  0.
-1.5164275528858126e-21 1.662425263851243e-07  0.
-1.3802878759838526e-19 1.6624252638508377e-07  0.
-4.046398453833324e-18 1.6624252638389449e-07  0.
-1.0269881038694487e-16 1.6624252635071332e-07  0.
-2.1905132756888345e-15 1.662425255740007e-07  0.
-3.853095994543336e-14 1.6624251043083996e-07  0.
-5.45428203234604e-13 1.6624226989308773e-07  0.
-6.02385402371062e-12 1.6623924323722536e-07  0.
-4.984179961872128e-11 1.6621018530657194e-07  0.
-2.944473995664889e-10 1.6600751198539802e-07  0.
-1.1865512204936635e-09 1.65030194348384e-07  0.
-3.3565081851659656e-09 1.6187041156625763e-07  0.
-7.519138872547468e-09 1.5404434487680505e-07  0.
-1.3662413634575881e-08 1.387745508468437e-07  0.
-2.3505358917040686e-08 1.1650932779380084e-07  0.
-6.93527032388966e-08 1.2691240788012754e-07  0.
0.0 7.828757778782378e-07  0.
1.4454887429722537e-21 7.828757778782323e-07  0.
7.438906304339526e-22 7.828757778782372e-07  0.
-9.363616166091148e-23 7.82875777878236e-07  0.
3.9081921147607324e-23 7.828757778782362e-07  0.
-3.3080773004708117e-21 7.828757778782341e-07  0.
-2.23117373787758e-19 7.828757778781893e-07  0.
-6.8379721746249724e-18 7.82875777876505e-07  0.
-1.8120035477938511e-16 7.828757778282662e-07  0.
-4.071222057267546e-15 7.828757766428804e-07  0.
-7.624500129592967e-14 7.82875752134552e-07  0.
-1.1659168983674217e-12 7.828753335533716e-07  0.
-1.4182842087775179e-11 7.828695689232696e-07  0.
-1.327961072498199e-10 7.828073958320491e-07  0.
-9.174233917517044e-10 7.823032715796583e-07  0.
-4.4671910111365825e-09 7.793726032854594e-07  0.
-1.4896951512291535e-08 7.677014320059044e-07  0.
-3.640506842874381e-08 7.352134091774841e-07  0.
-7.104914650195578e-08 6.669784329099801e-07  0.
-1.2792470724221405e-07 5.690197400025817e-07  0.
-3.528413869642212e-07 6.354347500411386e-07  0.
0.0 2.515927746726754e-06  0.
-8.57010597225202e-22 2.515927746726749e-06  0.
8.8944404454888e-22 2.515927746726747e-06  0.
-2.1865889945192583e-22 2.515927746726749e-06  0.
6.6883742518326e-22 2.5159277467267475e-06  0.
-4.125215869371882e-21 2.515927746726748e-06  0.
-3.2789306957881576e-19 2.515927746726689e-06  0.
-1.0423283040018061e-17 2.5159277467246595e-06  0.
-2.8563965605935427e-16 2.5159277466644224e-06  0.
-6.677947547743047e-15 2.5159277451276933e-06  0.
-1.3115390021512553e-13 2.5159277118936055e-06  0.
-2.124821262610165e-12 2.5159271127858547e-06  0.
-2.776431896867531e-11 2.5159182835806685e-06  0.
-2.843659227415243e-10 2.5158147288475994e-06  0.
-2.202366061767585e-09 2.5148776932470652e-06  0.
-1.2333233398109568e-08 2.5086320287715176e-06  0.
-4.786622246035384e-08 2.4794165160529338e-06  0.
-1.2889464315336132e-07 2.387327142989577e-06  0.
-2.7082058424532037e-07 2.1809192190719657e-06  0.
-5.118233396529383e-07 1.9048953672401544e-06  0.
-1.249701519750905e-06 2.198375802564461e-06  0.
0.0 5.301085945047366e-06  0.
-8.159919961765327e-22 5.301085945047369e-06  0.
2.7841389231594973e-21 5.3010859450473755e-06  0.
1.3952512649212074e-21 5.301085945047373e-06  0.
1.4475577635098826e-21 5.301085945047375e-06  0.
-5.863306191651584e-21 5.30108594504737e-06  0.
-4.444988749570236e-19 5.301085945047308e-06  0.
-1.437840492934232e-17 5.3010859450452384e-06  0.
-4.0410484420708826e-16 5.301085944982102e-06  0.
-9.728958297912142e-15 5.301085943325278e-06  0.
-1.9785180615278648e-13 5.301085906287634e-06  0.
-3.3429745693769725e-12 5.301085211079616e-06  0.
-4.598909994455337e-11 5.301074457510418e-06  0.
-5.022832541665485e-10 5.300940232000141e-06  0.
-4.218015467564983e-09 5.299629205556879e-06  0.
-2.6159025949189846e-08 5.2899479957982325e-06  0.
-1.142300653975292e-07 5.238859306408845e-06  0.
-3.4011508269110133e-07 5.05828305684434e-06  0.
-7.441354182935784e-07 4.660534058913224e-06  0.
-1.4792246086043223e-06 4.234489071379727e-06  0.
-2.9445895501781803e-06 5.040268106629026e-06  0.
0.0 7.777245182716803e-06  0.
7.938959958618742e-22 7.777245182716811e-06  0.
-1.6705320961741485e-21 7.777245182716805e-06  0.
-4.5903289572796345e-22 7.777245182716813e-06  0.
-1.0086017537031792e-21 7.777245182716811e-06  0.
-1.5135611017315105e-20 7.77724518271681e-06  0.
-5.504327303090576e-19 7.777245182716762e-06  0.
-1.8040657367324432e-17 7.777245182715043e-06  0.
-5.157453051836374e-16 7.777245182661854e-06  0.
-1.2670177979594326e-14 7.777245181238802e-06  0.
-2.6389081330499135e-13 7.777245148683287e-06  0.
-4.5882899531660035e-12 7.77724452085634e-06  0.
-6.53615260769177e-11 7.77723447318374e-06  0.
-7.454510623654854e-10 7.777103851224504e-06  0.
-6.612120550843254e-09 7.775755774424324e-06  0.
-4.3971424256222146e-08 7.765105974603842e-06  0.
-2.0948511321270555e-07 7.70344011222579e-06  0.
-6.830132047973925e-07 7.464085444048246e-06  0.
-1.5427573513885068e-06 6.957554697694847e-06  0.
-2.9444870631043054e-06 6.756956394263397e-06  0.
-4.638924624544893e-06 7.980556318470694e-06  0.
0.0 1.0013343574673962e-05  0.
2.599222648505093e-21 1.0013343574673966e-05  0.
-7.112998518852584e-22 1.0013343574673966e-05  0.
1.571178369481113e-21 1.0013343574673959e-05  0.
1.473816101839902e-21 1.0013343574673956e-05  0.
-1.514314649399283e-20 1.0013343574673952e-05  0.
-6.244311205920291e-19 1.0013343574673927e-05  0.
-2.0646930968287945e-17 1.0013343574672948e-05  0.
-5.963530816952999e-16 1.0013343574642268e-05  0.
-1.4825252237800035e-14 1.0013343573812084e-05  0.
-3.1312296775774135e-13 1.001334355457451e-05  0.
-5.5359414822052755e-12 1.0013343177597114e-05  0.
-8.047959354220324e-11 1.0013337031792281e-05  0.
-9.412404606226471e-10 1.0013255110847856e-05  0.
-8.620462040608217e-09 1.0012384341243654e-05  0.
-5.976520656612782e-08 1.0005195097900924e-05  0.
-3.009702550937353e-07 9.961298653100524e-06  0.
-1.0499632607432488e-06 9.779737352421981e-06  0.
-2.4485157026797053e-06 9.398409664417463e-06  0.
-4.012046820333193e-06 9.548529837207634e-06  0.
-5.367062891263069e-06 1.0479072155440483e-05  0.
0.0 1.2450000000000028e-05  0.
-3.295943835317824e-21 1.2450000000000028e-05  0.
3.354908134680662e-21 1.2450000000000028e-05  0.
-3.807076036307893e-21 1.2450000000000028e-05  0.
5.7036590949776915e-21 1.2450000000000028e-05  0.
-1.842466213211157e-20 1.2450000000000028e-05  0.
-6.506369565246704e-19 1.2450000000000028e-05  0.
-2.1593616374881038e-17 1.2450000000000028e-05  0.
-6.25843223035969e-16 1.2450000000000028e-05  0.
-1.5619345857982922e-14 1.2450000000000028e-05  0.
-3.3141213346330885e-13 1.2450000000000028e-05  0.
-5.89157846023399e-12 1.2450000000000028e-05  0.
-8.621990762484308e-11 1.2450000000000028e-05  0.
-1.0167813891965128e-09 1.2450000000000028e-05  0.
-9.410321489881129e-09 1.2450000000000028e-05  0.
-6.617040388341977e-08 1.2450000000000028e-05  0.
-3.3967282767093915e-07 1.2450000000000028e-05  0.
-1.2157254622526726e-06 1.2450000000000028e-05  0.
-2.8757583981568283e-06 1.2450000000000028e-05  0.
-4.2849833835588495e-06 1.2450000000000028e-05  0.
-5.4315412414941484e-06 1.2450000000000028e-05  0.
</DataArray>
<DataArray type="Float64" Name="sigma_xx" NumberOfComponents="1" format="ascii" >
0.0 
0.0 
0.0 
0.0 
0.0 
0.0 
0.0 
0.0 
0.0 
0.0 
0.0 
0.0 
0.0 
0.0 
0.0 
0.0 
0.0 
0.0 
0.0 
0.0 
0.0 
0.0 
0.0 
0.0 
0.0 
0.0 
0.0 
0.0 
0.0 
0.0 
0.0 
0.0 
0.0 
0.0 
0.0 
0.0 
0.0 
0.0 
0.0 
0.0 
0.0 
0.0 
0.0 
0.0 
0.0 
0.0 
0.0 
0.0 
0.0 
0.0 
0.0 
0.0 
0.0 
0.0 
0.0 
0.0 
0.0 
0.0 
0.0 
0.0 
0.0 
0.0 
0.0 
0.0 
0.0 
0.0 
0.0 
0.0 
0.0 
0.0 
0.0 
0.0 
0.0 
0.0 
0.0 
0.0 
0.0 
0.0 
0.0 
0.0 
0.0 
0.0 
0.0 
0.0 
6.838973831690962e-06 
6.838973831690962e-06 
6.838973831690962e-06 
6.838973831690962e-06 
6.838973831690962e-06 
6.838973831690962e-06 
6.838973831690962e-06 
6.838973831690962e-06 
6.838973831690962e-06 
6.838973831690962e-06 
6.838973831690962e-06 
6.838973831690962e-06 
6.838973831690962e-06 
6.838973831690962e-06 
6.611378111642805e-06 
6.300515664747762e-06 
5.911937606128957e-06 
5.295763827461995e-06 
4.5186077102243854e-06 
3.3972824553529773e-06 
2.742250870824135e-06 
0.00022630786133959183 
0.00022630786133959183 
0.00022630786133959183 
0.00022630786133959183 
0.00022630786133959183 
0.00022630786133959183 
0.00022630786133959183 
0.00022630786133959183 
0.00022630786133959183 
0.00022630786133959183 
0.00022615798123126743 
0.00022563062529457048 
0.00022456481119093033 
0.0002223388140265569 
0.00021757595725091497 
0.0002094824314013976 
0.00019687029784165583 
0.00017804091534401317 
0.00015192291868970637 
0.00010930145677434661 
8.171241461241147e-05 
0.006334444080380306 
0.006334444080380306 
0.006334444080380306 
0.006334444080380306 
0.006334444080380306 
0.006334444080380306 
0.006334444080380306 
0.006334444080380306 
0.006334222035775381 
0.006333172875017111 
0.006329631263568556 
0.00631910634929511 
0.006292638632388046 
0.006234712746078229 
0.006119682538496816 
0.005912315081957329 
0.005571648697966223 
0.005056549623461136 
0.004329275826719934 
0.003112859969789382 
0.0023176793817469834 
0.15211214510202348 
0.15211214510202348 
0.15211214510202348 
0.15211214510202348 
0.15211214510202348 
0.15211214510202348 
0.15211214510202348 
0.15211185089292195 
0.15210918635766285 
0.1520950865252501 
0.1520385317643757 
0.15185640522830107 
0.15135875330862797 
0.15018514210041184 
0.14773255396782753 
0.14314094909373404 
0.13534903198220144 
0.12327074361273554 
0.10587309362541927 
0.07620053477097596 
0.056686977334408056 
3.0947354456856138 
3.0947354456856138 
3.0947354456856138 
3.0947354456856138 
3.0947354456856138 
3.0947354456856138 
3.094735373521117 
3.094733608266508 
3.094715339546638 
3.0945752016453545 
3.0938990591700124 
3.091353811823793 
3.083686583860156 
3.0640536274884047 
3.0205769274704855 
2.9352630326329168 
2.7852980144515973 
2.5462336017412204 
2.1940855521318516 
1.5803429120886385 
1.17385333675557 
52.53327595156064 
52.53327595156064 
52.53327595156064 
52.53327595156064 
52.53327595156064 
52.53327595156064 
52.533275513022545 
52.533268785071016 
52.53318005049577 
52.532292471596506 
52.52617945594727 
52.4990521999502 
52.40449394983136 
52.13971758788459 
51.50780926221897 
50.20219247531264 
47.809577324864335 
43.87765235036588 
37.93834114085291 
27.33420101375116 
20.26431632495828 
730.3872410435728 
730.3872409658571 
730.3872408881415 
730.3872408881415 
730.3872408881415 
730.3872409658571 
730.387239805674 
730.3872180786094 
730.3868816588285 
730.3828165550194 
730.3468807007271 
730.1274733195748 
729.240318264601 
726.4008293761391 
719.065922144546 
702.8705901412911 
671.8548748618766 
619.0604596001401 
537.1003039073007 
386.8203857976258 
285.7219440932644 
8130.009024176485 
8130.009024098769 
8130.009024021054 
8130.009024021054 
8130.009024021054 
8130.0090240266045 
8130.009021045655 
8130.008961171328 
8130.007917889202 
8129.993417116397 
8129.839702114557 
8128.653824601703 
8122.320335574026 
8099.227879659884 
8032.103875901805 
7873.658354395904 
7552.893756435084 
6987.22537839924 
6081.62578885074 
4372.449239103958 
3214.8423373068435 
70411.43042096906 
70411.43042096906 
70411.43042096906 
70411.43042096906 
70411.43042096906 
70411.43042075257 
70411.43041414118 
70411.43027092243 
70411.42753697047 
70411.38524164767 
70410.87203220051 
70406.16843373424 
70375.03556276135 
70232.00002387317 
69768.0907582626 
68561.14397262578 
65989.21670238065 
61260.55093514103 
53459.5634109236 
38283.22824815098 
27891.971837445948 
457353.35087502253 
457353.35087502253 
457353.35087502253 
457353.35087502253 
457353.35087502253 
457353.3508745119 
457353.3508620496 
457353.3505598247 
457353.3443686438 
457353.2402574575 
457351.84006998036 
457337.24385330896 
457223.81395367475 
456593.80524357955 
454156.5255780088 
447255.32416101376 
431502.66609607567 
401610.7748438634 
350763.3821350968 
249119.4737710061 
179189.93012704933 
2122028.893342808 
2122028.8933427306 
2122028.8933426524 
2122028.8933426524 
2122028.8933426524 
2122028.893341781 
2122028.893319793 
2122028.892751864 
2122028.8804493826 
2122028.6595767625 
2122025.4433630006 
2121988.4815554055 
2121664.3939481075 
2119583.3508822694 
2110171.5696719643 
2080377.9796411563 
2008726.454853973 
1868761.1014738977 
1626988.5438809246 
1136143.2189448846 
796583.9040190988 
6588592.992898576 
6588592.992898499 
6588592.992898421 
6588592.992898421 
6588592.992898421 
6588592.992897272 
6588592.992861367 
6588592.991903355 
6588592.97022865 
6588592.560676374 
6588586.220424139 
6588507.732374649 
6587754.204996061 
6582353.103385957 
6554712.471810685 
6457237.246719051 
6214732.6973199565 
5737683.996912433 
4925181.126381183 
3313902.5924937073 
2206028.073783099 
12681118.07895935 
12681118.07895935 
12681118.07895935 
12681118.07895935 
12681118.07895935 
12681118.078957694 
12681118.078904415 
12681118.077446518 
12681118.043347614 
12681117.373293335 
12681106.50592865 
12680964.23839102 
12679502.51833868 
12668132.148801949 
12604137.478630677 
12356778.141343229 
11719813.212988077 
10534026.112823645 
8614037.627895549 
5271853.516029192 
3107430.363146493 
14770576.538899878 
14770576.538899876 
14770576.538899878 
14770576.538899878 
14770576.538899878 
14770576.538897647 
14770576.538825708 
14770576.536815444 
14770576.488622317 
14770575.513755891 
14770559.152092384 
14770336.015151508 
14767927.553630548 
14748041.609086355 
14627968.243052404 
14128152.312467882 
12786976.049907193 
10486120.131375812 
7280971.460055643 
3227701.8253564322 
1022473.4545416638 
13225489.564603006 
13225489.564603006 
13225489.564603006 
13225489.564603006 
13225489.564603006 
13225489.56460027 
13225489.564511303 
13225489.561989414 
13225489.50048564 
13225488.231217254 
13225466.421073347 
13225160.529663691 
13221745.731752979 
13192376.363944246 
13006127.076998878 
12186843.610031743 
9893326.998611761 
6194648.199360591 
2498767.423185716 
-68147.99158751612 
-1003618.8594028684 
13114338.293943103 
13114338.293943103 
13114338.293943103 
13114338.293943103 
13114338.293943103 
13114338.293940002 
13114338.29383894 
13114338.290952545 
13114338.21984436 
13114336.735017475 
13114310.866384987 
13113942.066121794 
13109743.116450293 
13072756.367910441 
12831248.133805452 
11731495.510257326 
8550546.524807664 
3583635.588744052 
598630.3035301263 
76220.5961517661 
-138522.3130759474 
13678524.831222512 
13678524.831222512 
13678524.831222512 
13678524.831222512 
13678524.831222512 
13678524.831219338 
13678524.83111393 
13678524.82809519 
13678524.753479477 
13678523.189354826 
13678495.81520864 
13678103.43852634 
13673607.111073133 
13633686.13770834 
13370485.65039339 
12157595.421484064 
8605656.496207844 
3113528.2840147465 
735746.9703213801 
985647.9440863736 
687660.0621603308 
</DataArray>
<DataArray type="Float64" Name="sigma_yy" NumberOfComponents="1" format="ascii" >
0.0 
0.0 
0.0 
0.0 
0.0 
0.0 
0.0 
0.0 
0.0 
0.0 
0.0 
0.0 
0.0 
0.0 
0.0 
0.0 
0.0 
0.0 
0.0 
0.0 
0.0 
0.0 
0.0 
0.0 
0.0 
0.0 
0.0 
0.0 
0.0 
0.0 
0.0 
0.0 
0.0 
0.0 
0.0 
0.0 
0.0 
0.0 
0.0 
0.0 
0.0 
0.0 
0.0 
0.0 
0.0 
0.0 
0.0 
0.0 
0.0 
0.0 
0.0 
0.0 
0.0 
0.0 
0.0 
0.0 
0.0 
0.0 
0.0 
0.0 
0.0 
0.0 
0.0 
0.0 
0.0 
0.0 
0.0 
0.0 