<?xml version="1.0"?>
<VTKFile type="UnstructuredGrid" version="0.1" byte_order="LittleEndian" compressor="vtkZLibDataCompressor">
<UnstructuredGrid>
<Piece NumberOfPoints="441" NumberOfCells="400">
<PointData>
<DataArray type="Float64" Name="displacement" NumberOfComponents="3" format="ascii" >
0.0 4.61106662051851e-28  0.
-5.313678873061274e-28 -8.747682568253561e-28  0.
-4.877995878829431e-28 7.446478860723377e-28  0.
1.6808261757184205e-28 -3.480047864439281e-29  0.
6.59912306256012e-29 -6.508915920961506e-29  0.
-2.116023726264024e-29 -2.2212683111654036e-29  0.
-1.627680251196072e-28 -1.1838764205392262e-28  0.
-4.710393604544901e-27 -4.386486379783876e-27  0.
-2.624657052108872e-26 -1.8616143999605892e-26  0.
-5.793085100030734e-26 -1.0388167021092572e-26  0.
-8.693805856566249e-26 -1.8714095081723116e-26  0.
-1.595162443320668e-25 -5.568809131824582e-26  0.
-5.010459297416753e-25 -2.997130282012693e-25  0.
-2.0655791159663835e-24 -1.2862470402286465e-24  0.
-8.639644918642981e-24 -3.6417729355258134e-24  0.
-1.0193026746176799e-23 2.3026733530519953e-24  0.
-6.414880523217927e-24 -2.536431468394851e-25  0.
-1.0395230553608279e-23 -2.6789613157363787e-24  0.
-1.3895163788910188e-23 1.3738002489419064e-25  0.
-9.772462581986162e-24 1.798378527406814e-24  0.
-7.968642530333278e-24 8.059677203963563e-24  0.
0.0 1.2419181431146478e-20  0.
-2.966078179588173e-25 1.2419765285390064e-20  0.
7.69937306122024e-27 1.2419577786275836e-20  0.
7.823070509341405e-27 1.2419563337778773e-20  0.
1.9565976821277972e-28 1.2419570070987256e-20  0.
-1.2048728738348016e-27 1.241956946092049e-20  0.
-7.714396448997295e-27 1.2419564765518915e-20  0.
-3.8789815602016344e-26 1.2419541290777801e-20  0.
-1.5632450171162404e-24 1.2417983911254544e-20  0.
-1.0146359345194001e-23 1.2415050356078384e-20  0.
-1.3864736154459333e-23 1.2420730504384109e-20  0.
-1.5293866894742408e-23 1.2415860078659805e-20  0.
-3.1175096187638765e-23 1.2408310976720628e-20  0.
-9.147226472544763e-23 1.2380497365924923e-20  0.
-4.502482764638149e-22 1.2163667938402405e-20  0.
-7.445637329014355e-22 1.0141868954573201e-20  0.
-5.236045504828699e-22 9.237198329938909e-21  0.
-7.980647970083665e-22 8.444089475095282e-21  0.
-1.2354904654253476e-21 6.2864641870493575e-21  0.
-1.0605757264117216e-21 4.192631550681469e-21  0.
-2.6197135923935218e-21 4.37937611889309e-21  0.
0.0 5.836322934730177e-19  0.
-1.7068506694001966e-24 5.83529478560055e-19  0.
9.122959171721261e-25 5.835248282895746e-19  0.
2.1677580191760043e-26 5.835257172873474e-19  0.
-4.0076314053988144e-27 5.835257573216074e-19  0.
-5.429926900519813e-26 5.835257049177267e-19  0.
-9.656363387489002e-25 5.835248536219571e-19  0.
-5.461998627478693e-24 5.835229153375723e-19  0.
-1.6970536519942456e-23 5.835131430809724e-19  0.
-4.631030669767095e-22 5.831620864977314e-19  0.
-7.33314042597072e-22 5.806923609875217e-19  0.
-1.3264776375311021e-21 5.784477308912913e-19  0.
-3.2162288080501735e-21 5.739924728966323e-19  0.
-5.16728135693172e-21 5.666242334761689e-19  0.
-1.0261841231819297e-20 5.512379134805437e-19  0.
-1.7117611149285016e-20 5.290285888929277e-19  0.
-2.1605973783810817e-20 4.875706442001432e-19  0.
-3.0596460023695105e-20 4.4166013246714465e-19  0.
-4.0452606616296006e-20 3.7495156965652926e-19  0.
-4.9934765371681335e-20 2.923130284732705e-19  0.
-1.5411393793695026e-19 2.9881683546544547e-19  0.
0.0 1.5381512495445606e-17  0.
-7.520683395665943e-23 1.5381323985658623e-17  0.
-1.4466520964884897e-24 1.5381249390567378e-17  0.
-3.857698522194426e-25 1.53812502879414e-17  0.
-7.604601531641667e-26 1.5381249875365258e-17  0.
-1.216771952282943e-24 1.5381248813710514e-17  0.
-2.540542609444663e-23 1.5381226167646044e-17  0.
-4.0866470114670083e-22 1.538094999563244e-17  0.
-1.2004269344072206e-21 1.537938685665307e-17  0.
-5.32424346617979e-21 1.537432192683207e-17  0.
-1.5181934224247505e-20 1.535818273247548e-17  0.
-3.451968123356718e-20 1.5311317283639612e-17  0.
-7.499100814601812e-20 1.5211410875326966e-17  0.
-1.4090136193026855e-19 1.5011631340128525e-17  0.
-2.397939471908139e-19 1.4664192437947576e-17  0.
-3.9207930998011895e-19 1.4080287965202686e-17  0.
-5.880240697168845e-19 1.3181809188965957e-17  0.
-8.213392152845361e-19 1.1868441954997914e-17  0.
-1.080067799042328e-18 1.0109915827918453e-17  0.
-1.3875117644337007e-18 7.969050784008457e-18  0.
-4.3138318673906205e-18 8.113326281188887e-18  0.
0.0 3.586689634668487e-16  0.
-8.526449471847895e-22 3.586671441631616e-16  0.
-2.5972842031468115e-23 3.5866693960750327e-16  0.
3.248639755388694e-25 3.5866691124226436e-16  0.
-1.8425515128667083e-24 3.586669096061175e-16  0.
-4.020848086426023e-23 3.586668726817404e-16  0.
-6.8531119910744835e-22 3.5866624134394037e-16  0.
-7.849227935155591e-21 3.5865845101959037e-16  0.
-3.014540494576387e-20 3.586231177249396e-16  0.
-1.0157950336652076e-19 3.58504073787432e-16  0.
-2.7544106889258806e-19 3.581694512001778e-16  0.
-6.743805632242239e-19 3.5730754313326986e-16  0.
-1.4728869606028449e-18 3.5537912396581117e-16  0.
-2.9109343886894943e-18 3.5140677861704263e-16  0.
-5.262879969606216e-18 3.439647455278718e-16  0.
-8.755862100129457e-18 3.3115572622878065e-16  0.
-1.3450052528748139e-17 3.1083523444255396e-16  0.
-1.9170076250301003e-17 2.8094154022324143e-16  0.
-2.5494088904463408e-17 2.400489518603662e-16  0.
-3.345038789990353e-17 1.8968189745249424e-16  0.
-1.0310216579960122e-16 1.935356420525431e-16  0.
0.0 7.361169977201142e-15  0.
-9.944550993310325e-22 7.361166041795963e-15  0.
1.4011643699346117e-23 7.3611657356571e-15  0.
-2.1815331809168177e-23 7.361165716363644e-15  0.
-2.75524764422809e-23 7.36116566906206e-15  0.
-7.979916654923091e-22 7.36116487455803e-15  0.
-1.4768113309573142e-20 7.361151280514157e-15  0.
-9.573435445798625e-20 7.36105736020425e-15  0.
-4.05667085938619e-19 7.360629750538861e-15  0.
-1.424782717077213e-18 7.359058025887102e-15  0.
-4.275087580901863e-18 7.354066966968664e-15  0.
-1.112900391533787e-17 7.340479792797087e-15  0.
-2.5725264951380253e-17 7.307696704606248e-15  0.
-5.330439949524474e-17 7.23703065466998e-15  0.
-1.0012975179713775e-16 7.0992003541450615e-15  0.
-1.7169856706497094e-16 6.854209827849371e-15  0.
-2.7051200670009693e-16 6.454519863047996e-15  0.
-3.933492966423174e-16 5.853254272112281e-15  0.
-5.312365507143116e-16 5.016940298239745e-15  0.
-7.0724602019536e-16 3.9768520198735104e-15  0.
-2.17416350892478e-15 4.0722915868553924e-15  0.
0.0 1.3182767294273424e-13  0.
-2.7127133067834125e-21 1.318276810001929e-13  0.
-7.705496555380261e-22 1.31827682350541e-13  0.
2.708962071759794e-23 1.3182768054405583e-13  0.
-1.0521856686120007e-22 1.3182768034196577e-13  0.
-9.650416292006382e-21 1.3182767022737607e-13  0.
-1.1161240837620644e-19 1.318275786270194e-13  0.
-8.064266336118557e-19 1.3182686640229988e-13  0.
-4.0971499085231615e-18 1.3182290170440933e-13  0.
-1.656312248706709e-17 1.3180564140067297e-13  0.
-5.492998373883039e-17 1.3174483756113707e-13  0.
-1.5577535697996545e-16 1.3156313630568412e-13  0.
-3.840548407331416e-16 1.3109293631084997e-13  0.
-8.400358020510584e-16 1.3001853772153908e-13  0.
-1.6466163507045232e-15 1.2782316772666885e-13  0.
-2.9245113010875888e-15 1.2376885082700593e-13  0.
-4.736540204967638e-15 1.1694973898774398e-13  0.
-7.041786326556877e-15 1.0643834452443775e-13  0.
-9.673443620113018e-15 9.154125699719893e-14  0.
-1.3090355432056477e-14 7.281969894984566e-14  0.
-4.008392286404889e-14 7.487763789370181e-14  0.
0.0 2.038920959409273e-12  0.
-7.662294459874858e-21 2.038920952843644e-12  0.
1.03086035593784e-21 2.038920951203556e-12  0.
-2.5431016467019093e-23 2.038920953424805e-12  0.
-1.2285508403774224e-21 2.0389209522030188e-12  0.
-4.815148695862594e-20 2.0389209234670773e-12  0.
-5.639387674550491e-19 2.0389205239607278e-12  0.
-4.9479410045659536e-18 2.038916656956961e-12  0.
-3.2255345136385785e-17 2.0388883272910527e-12  0.
-1.5274664186097374e-16 2.038741228612703e-12  0.
-5.799388536638237e-16 2.0381408432278413e-12  0.
-1.8096695742884263e-15 2.036143642497156e-12  0.
-4.835016134451537e-15 2.0305089854883135e-12  0.
-1.1235349208028407e-14 2.016737105241101e-12  0.
-2.3161470119928832e-14 1.9870223194559365e-12  0.
-4.27635178868431e-14 1.9297227909542985e-12  0.
-7.149064885405627e-14 1.8299499635538474e-12  0.
-1.0887957897903091e-13 1.671905353136095e-12  0.
-1.5248210706666271e-13 1.4432238191285954e-12  0.
-2.1012186767411574e-13 1.152685994867982e-12  0.
-6.397743000772619e-13 1.1911619166580974e-12  0.
0.0 2.6909525106799423e-11  0.
-3.60022692175693e-21 2.6909525110452165e-11  0.
1.9740879108796712e-21 2.690952511087215e-11  0.
-5.679065364680422e-22 2.6909525109169793e-11  0.
-7.38464429891318e-21 2.6909525103705812e-11  0.
-1.7687886035658182e-19 2.6909524993387623e-11  0.
-2.2564624017240606e-18 2.690952358390321e-11  0.
-2.3231415311491572e-17 2.690950747730277e-11  0.
-1.8518251949692883e-16 2.690936458399924e-11  0.
-1.1054221162994694e-15 2.6908406073757923e-11  0.
-4.860192898052412e-15 2.6903773519270603e-11  0.
-1.722289780770489e-14 2.6886077240925014e-11  0.
-5.0308773984765407e-14 2.683082490071214e-11  0.
-1.2601848914961553e-13 2.6684339817582683e-11  0.
-2.746184784647111e-13 2.63478143401797e-11  0.
-5.309023688635274e-13 2.5665518520661383e-11  0.
-9.186463095819653e-13 2.443001841871382e-11  0.
-1.43846016683969e-12 2.2411959728663573e-11  0.
-2.056870201289204e-12 1.9424158676273044e-11  0.
-2.8944409977274203e-12 1.5586275191087258e-11  0.
-8.738244433404597e-12 1.6203537085746333e-11  0.
0.0 2.9878564834269176e-10  0.
1.9550363005946764e-21 2.9878564835062654e-10  0.
-1.5150960473415566e-22 2.987856483534881e-10  0.
-4.2986634759239635e-22 2.987856483529926e-10  0.
-2.7794067032492336e-20 2.987856483366966e-10  0.
-5.314439955373786e-19 2.9878564807252816e-10  0.
-7.491532831403629e-18 2.987856438888547e-10  0.
-8.771878578364172e-17 2.987855902588202e-10  0.
-8.190429930138373e-16 2.9878503479932833e-10  0.
-5.90936422065255e-15 2.9878055549779137e-10  0.
-3.205955590644041e-14 2.987531847058748e-10  0.
-1.300418293873124e-13 2.9863086243352637e-10  0.
-4.2735829749740917e-13 2.981962453232024e-10  0.
-1.16167787760053e-12 2.969300183607024e-10  0.
-2.711844322124257e-12 2.937936506268264e-10  0.
-5.509684381090138e-12 2.870599325675406e-10  0.
-9.930587071837858e-12 2.743050419211105e-10  0.
-1.6015127900662693e-11 2.5274427488084206e-10  0.
-2.3456807946656455e-11 2.200047965474815e-10  0.
-3.3782679528952276e-11 1.7750752418965184e-10  0.
-1.0077463448113613e-10 1.8591874576496245e-10  0.
0.0 2.7441038156477505e-09  0.
-4.603262485037152e-21 2.7441038156413766e-09  0.
2.169515101797719e-22 2.7441038156388128e-09  0.
-1.2429452999101305e-21 2.7441038156393997e-09  0.
-7.45217355870017e-20 2.7441038156064386e-09  0.
-1.372369048707748e-18 2.744103814988997e-09  0.
-2.1316888321407306e-17 2.744103804490774e-09  0.
-2.7633757142419933e-16 2.744103655670166e-09  0.
-2.9197064965656926e-15 2.7441019218219153e-09  0.
-2.4486248975721662e-14 2.744085723382203e-09  0.
-1.5845644269992327e-13 2.743968118869455e-09  0.
-7.746984876872318e-13 2.7433193788362885e-09  0.
-2.8775513603999483e-12 2.7406591077016864e-09  0.
-8.702391787401e-12 2.7319342919131004e-09  0.
-2.1857212144823075e-11 2.70838419117292e-09  0.
-4.720906014541993e-11 2.6542724188758237e-09  0.
-8.880944122577474e-11 2.546452580909667e-09  0.
-1.4826984653800592e-10 2.357010084025027e-09  0.
-2.2266011176558616e-10 2.061357779736475e-09  0.
-3.295299770379544e-10 1.674296706203896e-09  0.
-9.65529644240714e-10 1.7701691899629462e-09  0.
0.0 2.0423445695470592e-08  0.
-4.488530555252192e-21 2.0423445695471992e-08  0.
-8.232156558981378e-22 2.0423445695479083e-08  0.
-4.98432468314849e-21 2.042344569547388e-08  0.
-1.6437632121376225e-19 2.0423445695411624e-08  0.
-3.1734437567282858e-18 2.0423445694142683e-08  0.
-5.296890667883751e-17 2.0423445671179415e-08  0.
-7.45455610296259e-16 2.042344531919774e-08  0.
-8.68749947628036e-15 2.0423440815775924e-08  0.
-8.199789859529527e-14 2.042339373114115e-08  0.
-6.11285246751962e-13 2.0423000965597228e-08  0.
-3.51016920537011e-12 2.0420461216386986e-08  0.
-1.5310984800311152e-11 2.0407951635072032e-08  0.
-5.160720077091879e-11 2.0361334489576206e-08  0.
-1.4226883318892956e-10 2.0221556497720105e-08  0.
-3.2730168331432126e-10 1.9875136343692725e-08  0.
-6.483576177232129e-10 1.9143319881501048e-08  0.
-1.120737144162531e-09 1.7802202903280403e-08  0.
-1.7324531668238345e-09 1.5647752326479644e-08  0.
-2.6403408501772407e-09 1.2816196882223282e-08  0.
-7.541754142501657e-09 1.371716228324863e-08  0.
0.0 1.2012710402958478e-07  0.
-2.774111217724081e-21 1.2012710402957985e-07  0.
1.9325624567675687e-21 1.2012710402957522e-07  0.
-1.1437633188680603e-20 1.2012710402957136e-07  0.
-3.2311904255304344e-19 1.2012710402947175e-07  0.
-6.6051233109106586e-18 1.201271040271507e-07  0.
-1.1665015463881402e-16 1.2012710398297867e-07  0.
-1.754777206520005e-15 1.2012710326164358e-07  0.
-2.212126253468143e-14 1.2012709331812762e-07  0.
-2.2928734828407966e-13 1.2012697963733295e-07  0.
-1.911427238095224e-12 1.2012592459606e-07  0.
-1.250879082771804e-11 1.2011816293066977e-07  0.
-6.291465143215889e-11 1.2007405560361424e-07  0.
-2.419231212493149e-10 1.198826903018426e-07  0.
-7.315710046405879e-10 1.192426357741915e-07  0.
-1.8167007547477263e-09 1.1750979027018526e-07  0.
-3.787181705776311e-09 1.1361281067860403e-07  0.
-6.812219632914864e-09 1.0613703151403963e-07  0.
-1.0827984372854258e-08 9.378862885565853e-08  0.
-1.706804987532021e-08 7.767065922444935e-08  0.
-4.690814243978492e-08 8.449720077739216e-08  0.
0.0 5.412737094813244e-07  0.
-4.5560426333885014e-21 5.412737094813247e-07  0.
2.307146531078681e-21 5.412737094813135e-07  0.
-2.0522381108032746e-20 5.412737094813083e-07  0.
-5.820482451482626e-19 5.412737094811461e-07  0.
-1.2435254336851264e-17 5.412737094773624e-07  0.
-2.3013089640293384e-16 5.412737094021072e-07  0.
-3.65394750239131e-15 5.412737081087803e-07  0.
-4.9067311725408567e-14 5.412736891786415e-07  0.
-5.479936535989646e-13 5.412734568754851e-07  0.
-4.990363843070181e-12 5.412711111121114e-07  0.
-3.6235109488256536e-11 5.412520433914606e-07  0.
-2.0496738684114967e-10 5.411302273171255e-07  0.
-8.88636862766987e-10 5.405321587041608e-07  0.
-2.96888442471431e-09 5.382857922241329e-07  0.
-7.937253307322436e-09 5.316541316690625e-07  0.
-1.7492093019094983e-08 5.157167906301474e-07  0.
-3.2639184194012577e-08 4.837669320618899e-07  0.
-5.339889434598152e-08 4.298140153985015e-07  0.
-8.706592872420036e-08 3.615515166331544e-07  0.
-2.2597198857524172e-07 4.023018821664033e-07  0.
0.0 1.7989850211362605e-06  0.
-5.3459178212817495e-21 1.7989850211362612e-06  0.
3.119991724542368e-21 1.7989850211362607e-06  0.
-3.516776684493737e-20 1.7989850211362544e-06  0.
-9.708745235036485e-19 1.7989850211360102e-06  0.
-2.1304910243034572e-17 1.798985021130515e-06  0.
-4.0950647881435425e-16 1.7989850210169595e-06  0.
-6.792429707987861e-15 1.7989850189828792e-06  0.
-9.595963912525341e-14 1.7989849877417988e-06  0.
-1.1372759889184412e-12 1.798984582140037e-06  0.
-1.1106718168592593e-11 1.798980204701163e-06  0.
-8.753122972606024e-11 1.798941716168253e-06  0.
-5.439954213328677e-10 1.7986722816724575e-06  0.
-2.608381819342502e-09 1.7972069866649953e-06  0.
-9.554825470542342e-09 1.791130447615514e-06  0.
-2.7247396405121234e-08 1.7718184758791752e-06  0.
-6.318659644587277e-08 1.722694372010906e-06  0.
-1.215986812426819e-07 1.6207625346090544e-06  0.
-2.0407674664552782e-07 1.4478660749411192e-06  0.
-3.429540232964633e-07 1.2475719588242216e-06  0.
-8.154560372356896e-07 1.4326484599263635e-06  0.
0.0 4.246244371547749e-06  0.
-5.020471535901341e-21 4.246244371547742e-06  0.
3.9242198371083574e-21 4.246244371547746e-06  0.
-5.3650521761581374e-20 4.246244371547738e-06  0.
-1.4783196567419352e-18 4.246244371547451e-06  0.
-3.3311221082457833e-17 4.246244371540347e-06  0.
-6.601641101165275e-16 4.246244371389632e-06  0.
-1.1338613606434936e-14 4.24624436859792e-06  0.
-1.6676752493485767e-13 4.2462443240397855e-06  0.
-2.0712723114887964e-12 4.246243719049721e-06  0.
-2.1367043481899626e-11 4.24623683966655e-06  0.
-1.7953755034235974e-10 4.246172512429371e-06  0.
-1.201299742011608e-09 4.245688806573045e-06  0.
-6.24878662758272e-09 4.242835781035674e-06  0.
-2.4769616428393507e-08 4.229974307353788e-06  0.
-7.478043119125856e-08 4.186307782000081e-06  0.
-1.7831708212327675e-07 4.072596157510165e-06  0.
-3.516790129899293e-07 3.834095525875142e-06  0.
-5.98103639932941e-07 3.4454645974577486e-06  0.
-1.026357208688149e-06 3.090283823229868e-06  0.
-2.1305971432656286e-06 3.698125491797047e-06  0.
0.0 7.087292597713452e-06  0.
-1.588525849184372e-22 7.087292597713452e-06  0.
3.818988393571377e-21 7.087292597713454e-06  0.
-7.414139564992496e-20 7.087292597713438e-06  0.
-2.064661277794104e-18 7.087292597713115e-06  0.
-4.77033057004375e-17 7.0872925977050914e-06  0.
-9.681851940838701e-16 7.087292597530615e-06  0.
-1.708783628300169e-14 7.087292594212711e-06  0.
-2.593140515070059e-13 7.087292539631876e-06  0.
-3.3394486015286236e-12 7.087291772344166e-06  0.
-3.59324164550343e-11 7.087282685517589e-06  0.
-3.171237091666356e-10 7.0871936091961174e-06  0.
-2.246011142361653e-09 7.0864855266648404e-06  0.
-1.2449603470189653e-08 7.0820369139903176e-06  0.
-5.265272066800137e-08 7.060567351511306e-06  0.
-1.671728536811644e-07 6.983252107193668e-06  0.
-4.047659196918588e-07 6.77824259287639e-06  0.
-7.969519057288531e-07 6.367743307949834e-06  0.
-1.364389505167339e-06 5.778997609558149e-06  0.
-2.3165548629630484e-06 5.545279668991682e-06  0.
-3.984756621287326e-06 6.888430079076345e-06  0.
0.0 9.306557626033023e-06  0.
1.5664856847664738e-21 9.306557626033033e-06  0.
4.866695009190016e-21 9.30655762603302e-06  0.
-9.497230064409983e-20 9.306557626033016e-06  0.
-2.6727504816387286e-18 9.306557626032702e-06  0.
-6.284846650546624e-17 9.306557626024842e-06  0.
-1.298800186532563e-15 9.3065576258507e-06  0.
-2.339656004429202e-14 9.306557622474134e-06  0.
-3.6346435415721946e-13 9.306557565674251e-06  0.
-4.8088006212544396e-12 9.306556746271671e-06  0.
-5.3388412305546027e-11 9.306546748472912e-06  0.
-4.886673786792569e-10 9.306445229491177e-06  0.
-3.6101708199749535e-09 9.305604638550587e-06  0.
-2.0992662542205797e-08 9.300063194877442e-06  0.
-9.339525450643058e-08 9.271859640652377e-06  0.
-3.096858423319511e-07 9.16496035320046e-06  0.
-7.612626746398706e-07 8.875248230450721e-06  0.
-1.466863830492583e-06 8.339923127069085e-06  0.
-2.492030737792387e-06 7.768234575016291e-06  0.
-3.978003800468149e-06 8.120897618915527e-06  0.
-5.601477964668825e-06 9.89537591853709e-06  0.
0.0 1.1631206531103264e-05  0.
-2.946132431151415e-21 1.1631206531103257e-05  0.
-2.2399133236814452e-21 1.1631206531103271e-05  0.
-1.2321951579522946e-19 1.1631206531103266e-05  0.
-3.2202586569027107e-18 1.1631206531103e-05  0.
-7.642612583025324e-17 1.1631206531096647e-05  0.
-1.599398251926403e-15 1.163120653095424e-05  0.
-2.9225535125246153e-14 1.1631206528155113e-05  0.
-4.614752157396154e-13 1.1631206480331482e-05  0.
-6.221021960466112e-12 1.163120577807177e-05  0.
-7.058123080560021e-11 1.1631197029599383e-05  0.
-6.625267518536127e-10 1.1631106042870419e-05  0.
-5.040061225466045e-09 1.1630330714205647e-05  0.
-3.0308688725786094e-08 1.1625046943720475e-05  0.
-1.3990640184261134e-07 1.159707646224991e-05  0.
-4.804967911074058e-07 1.1486570826235575e-05  0.
-1.2029946445686164e-06 1.1180578658635363e-05  0.
-2.2682696309006646e-06 1.0662259800896476e-05  0.
-3.6831002176384246e-06 1.0393464725435618e-05  0.
-5.352453702064168e-06 1.1195079800442455e-05  0.
-6.577913563167758e-06 1.2338852875820687e-05  0.
0.0 1.4099359918577818e-05  0.
-1.8373345422126544e-21 1.4099359918577831e-05  0.
4.286447574104299e-22 1.4099359918577831e-05  0.
-1.302127505353557e-19 1.4099359918577833e-05  0.
-3.597440856056512e-18 1.4099359918577689e-05  0.
-8.588601223916428e-17 1.4099359918574121e-05  0.
-1.810750453082063e-15 1.4099359918493914e-05  0.
-3.3367345692473436e-14 1.4099359916904123e-05  0.
-5.319581842464786e-13 1.4099359889487621e-05  0.
-7.25065764504267e-12 1.4099359482515924e-05  0.
-8.331800485618083e-11 1.4099354349976379e-05  0.
-7.937424033937328e-10 1.4099300181106165e-05  0.
-6.143312184097662e-09 1.4098830773563747e-05  0.
-3.7688171089349586e-08 1.409556481611994e-05  0.
-1.7795251794413268e-07 1.407785430682495e-05  0.
-6.25798004494383e-07 1.4005928180507397e-05  0.
-1.5940504725243545e-06 1.3802583802922837e-05  0.
-2.961467101746545e-06 1.3484144675276592e-05  0.
-4.42532938148969e-06 1.3507219149689018e-05  0.
-5.993753912619566e-06 1.4060838940947488e-05  0.
-7.229321048266932e-06 1.4227986613789428e-05  0.
0.0 1.6450000000000037e-05  0.
-6.7109244771912255e-21 1.6450000000000037e-05  0.
7.157494018574346e-21 1.6450000000000037e-05  0.
-1.3374647898993246e-19 1.6450000000000037e-05  0.
-3.727370738931668e-18 1.6450000000000037e-05  0.
-8.927797956735535e-17 1.6450000000000037e-05  0.
-1.8869311120378347e-15 1.6450000000000037e-05  0.
-3.4868112227353304e-14 1.6450000000000037e-05  0.
-5.576517283736462e-13 1.6450000000000037e-05  0.
-7.628626149471655e-12 1.6450000000000037e-05  0.
-8.803066908696475e-11 1.6450000000000037e-05  0.
-8.427554425899466e-10 1.6450000000000037e-05  0.
-6.559908729815065e-09 1.6450000000000037e-05  0.
-4.051322541436944e-08 1.6450000000000037e-05  0.
-1.9276365673727795e-07 1.6450000000000037e-05  0.
-6.836624778106474e-07 1.6450000000000037e-05  0.
-1.7543533800328856e-06 1.6450000000000037e-05  0.
-3.240775362172081e-06 1.6450000000000037e-05  0.
-4.616680114893414e-06 1.6450000000000037e-05  0.
-6.116246847774902e-06 1.6450000000000037e-05  0.
-7.535172261945094e-06 1.6450000000000037e-05  0.
</DataArray>
<DataArray type="Float64" Name="sigma_xx" NumberOfComponents="1" format="ascii" >
0.0 
0.0 
0.0 
0.0 
0.0 
0.0 
0.0 
0.0 
0.0 
0.0 
0.0 
0.0 
0.0 
0.0 
0.0 
0.0 
0.0 
0.0 
0.0 
0.0 
0.0 
1.5543122344752187e-06 
1.5543122344752187e-06 
1.5543122344752187e-06 
1.5543122344752187e-06 
1.5543122344752187e-06 
1.5543122344752187e-06 
1.5543122344752187e-06 
1.5543122344752187e-06 
1.5543122344752187e-06 
1.5543122344752187e-06 
1.5543122344752187e-06 
1.5543122344752187e-06 
1.5543122344752187e-06 
1.5543122344752187e-06 
1.5543122344752187e-06 
1.4765966227514578e-06 
1.3211653993039359e-06 
1.1712852909795397e-06 
1.0935696792557788e-06 
8.659739592076218e-07 
6.439293542825906e-07 
4.2899017671516035e-05 
4.2899017671516035e-05 
4.2899017671516035e-05 
4.2899017671516035e-05 
4.2899017671516035e-05 
4.2899017671516035e-05 
4.2899017671516035e-05 
4.2899017671516035e-05 
4.2899017671516035e-05 
4.2899017671516035e-05 
4.2899017671516035e-05 
4.274913756319164e-05 
4.2371661734819086e-05 
4.182765245275276e-05 
4.066746939201947e-05 
3.87356813291717e-05 
3.5949021537362555e-05 
3.2157609908267646e-05 
2.727262859991696e-05 
1.947331185192524e-05 
1.4466206010865783e-05 
0.001002531391236516 
0.001002531391236516 
0.001002531391236516 
0.001002531391236516 
0.001002531391236516 
0.001002531391236516 
0.001002531391236516 
0.001002531391236516 
0.0010023037955164678 
0.0010016265594714464 
0.0010000333894311093 
0.0009963696534498463 
0.000988942261415104 
0.000974731406699902 
0.0009495404462711572 
0.0009089839991816003 
0.0008476053192651987 
0.0007608191854302502 
0.0006445566302915038 
0.0004587774604658532 
0.00033918423625323136 
0.020568213798810568 
0.020568213798810568 
0.020568213798810568 
0.020568213798810568 
0.020568213798810568 
0.020568213798810568 
0.020568141634313968 
0.02056717018916742 
0.020564083769158963 
0.020554424828844724 
0.020528195809887954 
0.02046592340043673 
0.02033173629456541 
0.020067930650569103 
0.01959238882243141 
0.018801316059580124 
0.017579454558713785 
0.015820877941052906 
0.013431056267165783 
0.00956473233948429 
0.007062850304606624 
0.3681132065835867 
0.3681132065835867 
0.3681132065835867 
0.3681132065835867 
0.3681132065835867 
0.3681129845389818 
0.36811150794235903 
0.3681025761981259 
0.3680667881589271 
0.36794552960017757 
0.36759149057985485 
0.3666898673593265 
0.36464148922554773 
0.3604460063755254 
0.352619067278681 
0.33922513131834353 
0.3180690433257637 
0.2870668591725688 
0.24427517231195842 
0.17396593610108363 
0.1282474570984959 
5.688367310519025 
5.688367310519025 
5.688367310519025 
5.688367310519025 
5.688367160638917 
5.688365911638014 
5.688355525501619 
5.688287063598805 
5.68796064137622 
5.686706228136272 
5.682702747256128 
5.671701092113677 
5.6452070518187 
5.588283463753283 
5.477990167035427 
5.283325910099277 
4.968194383669909 
4.497200606357053 
3.8360732534936646 
2.731217602081059 
2.0088412044927386 
74.97755456498109 
74.9775546426967 
74.97755472041231 
74.97755472041231 
74.9775540542785 
74.97754862528791 
74.97749707208176 
74.9770958874407 
74.97474538431523 
74.9643742414818 
74.92718054891154 
74.81597994463127 
74.528980847921 
73.87896499566612 
72.56420685997075 
70.16468419607233 
66.17430814426226 
60.083024427948196 
51.375080833970785 
36.54945233411143 
26.800696534268184 
830.8910455001593 
830.8910455778748 
830.8910456555905 
830.8910456555905 
830.8910439736026 
830.8910256382694 
830.8908223675357 
830.8889889063751 
830.8761811737228 
830.8081023644661 
830.5314117662551 
829.6117745443252 
827.0515896857676 
820.8825931610428 
807.8138308803547 
783.058023093308 
740.704431076433 
674.5783734996012 
578.1703813656501 
410.6810539583614 
299.83153140844524 
7608.160963212816 
7608.160963212816 
7608.160963212816 
7608.160963140651 
7608.160959438057 
7608.1609056810585 
7608.160235716974 
7608.153428223516 
7608.09853970201 
7607.755525035341 
7606.115490765839 
7600.026713727722 
7581.425076144675 
7533.567132225746 
7426.677329025464 
7216.262803227955 
6845.21659114756 
6252.565460734825 
5370.306338497997 
3803.8900552983523 
2760.6038905003675 
56349.940040179 
56349.940040179 
56349.940040179 
56349.940039818175 
56349.94003133051 
56349.93989152013 
56349.937995864275 
56349.91677870846 
56349.72489187427 
56348.35445278428 
56340.78065228641 
56308.563050203025 
56200.43262423988 
55899.95177680827 
55192.30304594223 
53740.51504094811 
51105.79198646934 
46802.73301516934 
40261.23224429855 
28381.87183386852 
20413.344774866662 
328701.1100591596 
328701.1100591596 
328701.1100591596 
328701.11005814373 
328701.1100392145 
328701.1097157954 
328701.1050226773 
328701.0481860696 
328700.4843444795 
328695.99926856335 
328668.01176152367 
328533.1718660133 
328029.7488171101 
326522.947413979 
322766.46309423714 
314770.30030765117 
299874.7987303095 
275124.2998375674 
236760.6434035246 
165555.45013160195 
117505.03308545763 
1458905.1933923122 
1458905.1933923122 
1458905.1933923122 
1458905.1933903527 
1458905.1933526103 
1458905.192680487 
1458905.1823716941 
1458905.0492305628 
1458903.6257001194 
1458891.2737755724 
1458806.1738424776 
1458350.175703454 
1456469.757081177 
1450415.5110401534 
1434555.9881723446 
1399757.6168984359 
1333964.4368287073 
1223894.579637177 
1051074.6173218093 
724784.2940512144 
503542.63008062757 
4705727.9340774845 
4705727.9340774845 
4705727.934077563 
4705727.934074309 
4705727.934006369 
4705727.932742841 
4705727.912459161 
4705727.636379262 
4705724.499961937 
4705695.308820022 
4705477.4498705175 
4704203.048506634 
4698472.334435942 
4678736.269685969 
4625252.284346746 
4506012.145951025 
4282089.701933244 
3913056.4097008733 
3335697.151864385 
2242611.2571416707 
1500929.4141709753 
10395116.41878623 
10395116.41878623 
10395116.418786235 
10395116.418781117 
10395116.41866916 
10395116.416509489 
10395116.380529253 
10395115.86954134 
10395109.77365148 
10395049.759020042 
10394572.209784621 
10391573.431440955 
10377075.344250618 
10324084.27359297 
10176901.79811266 
9853095.222911611 
9265211.09382454 
8350246.8444281835 
6969643.460877986 
4450878.464690897 
2767944.0236463216 
14846630.987800475 
14846630.987800475 
14846630.98780026 
14846630.987792538 
14846630.987622455 
14846630.984252736 
14846630.926412828 
14846630.076544248 
14846619.535704259 
14846511.031130942 
14845602.716295514 
14839567.496178832 
14808619.691177124 
14689593.028941417 
14352218.820487725 
13634944.972874198 
12423845.855583865 
10728606.146940066 
8411083.233535998 
4730849.876677814 
2410794.6812259885 
14205267.850968957 
14205267.850968957 
14205267.850968668 
14205267.85095805 
14205267.850719422 
14205267.845897697 
14205267.761170732 
14205266.482595801 
14205250.135432744 
14205075.92474955 
14203558.895531103 
14193024.888582874 
14136419.93184525 
13909278.429920698 
13253196.583484344 
11913701.111417964 
9896727.522651851 
7442173.140517026 
4679141.954862623 
1635024.506163482 
53231.23924175487 
12751880.576925218 
12751880.576925218 
12751880.576924857 
12751880.57691158 
12751880.576602306 
12751880.570250768 
12751880.456649054 
12751878.7075485 
12751855.828020751 
12751605.577222658 
12749361.004860055 
12733249.435826762 
12643526.753454117 
12271096.940537756 
11175701.855430758 
9016051.084872872 
6204437.001670906 
3394431.2135689687 
966160.3121535586 
-212288.12264575617 
-321916.18641928793 
13452034.585418057 
13452034.585418055 
13452034.585417472 
13452034.585401602 
13452034.585029982 
13452034.577309508 
13452034.437498208 
13452032.254449125 
13452003.240656108 
13451680.100310087 
13448721.558672875 
13426988.187795721 
13302872.332620196 
12774757.102794912 
11196808.994032562 
8154683.873263771 
4745139.196380585 
2348242.1021918585 
643337.9105661723 
231810.23869225712 
650586.9480874147 
13525150.124733027 
13525150.124733027 
13525150.1247323 
13525150.124714626 
13525150.124299956 
13525150.11562555 
13525149.957382698 
13525147.465979865 
13525114.041705348 
13524737.788419742 
13521250.961196091 
13495284.572811905 
13344753.203153424 
12694445.662129126 
10729926.244926577 
6981636.453141648 