<?xml version="1.0"?>
<VTKFile type="UnstructuredGrid" version="0.1" byte_order="LittleEndian" compressor="vtkZLibDataCompressor">
<UnstructuredGrid>
<Piece NumberOfPoints="441" NumberOfCells="400">
<PointData>
<DataArray type="Float64" Name="displacement" NumberOfComponents="3" format="ascii" >
0.0 2.099679981787545e-13  0.
-2.103524045552531e-20 2.0996795966645247e-13  0.
-1.1827253217615352e-19 2.0996784967476864e-13  0.
-4.747368376176357e-19 2.0996737945607998e-13  0.
-1.726550792229019e-18 2.099655296225995e-13  0.
-5.613023079067274e-18 2.099593566899658e-13  0.
-1.6412687157973767e-17 2.0994062396138015e-13  0.
-4.351124856419973e-17 2.0988927629101526e-13  0.
-1.0552919762489491e-16 2.0976084564494483e-13  0.
-2.355184735782238e-16 2.0946538872387393e-13  0.
-4.863444113016478e-16 2.088375165484294e-13  0.
-9.336685348291165e-16 2.0759797263453505e-13  0.
-1.6729636048178581e-15 2.0531574580027958e-13  0.
-2.8073192827698754e-15 2.013831661826321e-13  0.
-4.424265019885871e-15 1.950220298200279e-13  0.
-6.564163878742803e-15 1.8533895806829818e-13  0.
-9.187498527866518e-15 1.714380029806957e-13  0.
-1.2154711079488677e-14 1.525852039878884e-13  0.
-1.5277489075970094e-14 1.2844295523947294e-13  0.
-1.9479480713676978e-14 1.003258914672219e-13  0.
-4.823075802564668e-14 1.0104452638425544e-13  0.
0.0 1.133417193734777e-12  0.
-6.969108733106266e-20 1.1334171517159468e-12  0.
-3.5797553058049605e-19 1.1334168524216244e-12  0.
-1.6004028288401395e-18 1.1334154126036086e-12  0.
-6.346249482917319e-18 1.133409412573122e-12  0.
-2.210231970347159e-17 1.1333875031538253e-12  0.
-6.859224225120214e-17 1.133316489103573e-12  0.
-1.9161068343653759e-16 1.1331100050289635e-12  0.
-4.860022140896318e-16 1.1325662316202194e-12  0.
-1.1276043389731157e-15 1.1312594097552817e-12  0.
-2.4085375475141754e-15 1.1283734296735423e-12  0.
-4.761085930306153e-15 1.1224843014375817e-12  0.
-8.749523497182266e-15 1.1113265625358857e-12  0.
-1.5004579005622734e-14 1.0916199457294706e-12  0.
-2.4089714572064424e-14 1.0590633643694513e-12  0.
-3.63061549323959e-14 1.0086075249197938e-12  0.
-5.1483972180942077e-14 9.350746827810815e-13  0.
-6.883803690158288e-14 8.341103303490643e-13  0.
-8.72877404415098e-14 7.036415130561105e-13  0.
-1.1303643378306612e-13 5.531307228043645e-13  0.
-3.100079200184951e-13 5.715168166365397e-13  0.
0.0 1.0721333348814503e-11  0.
-3.094610033583055e-19 1.0721333170656639e-11  0.
-1.7885806099946406e-18 1.0721331801038172e-11  0.
-8.950338805078629e-18 1.0721324445808963e-11  0.
-3.854114312474961e-17 1.0721290870947394e-11  0.
-1.4481134177138044e-16 1.0721157707643749e-11  0.
-4.799921526414441e-16 1.0720694170764949e-11  0.
-1.4197414647271117e-15 1.0719259894878908e-11  0.
-3.7836921808213124e-15 1.071527474180306e-11  0.
-9.163847670412923e-15 1.0705240576840408e-11  0.
-2.03120298436136e-14 1.068217178686781e-11  0.
-4.145718721602041e-14 1.063343176094549e-11  0.
-7.830893060494407e-14 1.053827963973186e-11  0.
-1.3749303893207422e-13 1.0365844814640043e-11  0.
-2.2520669863654187e-13 1.0074644777771427e-11  0.
-3.4519208955616306e-13 9.61486846912827e-12  0.
-4.96410155790381e-13 8.934277660627047e-12  0.
-6.713820089408846e-13 7.987751987932609e-12  0.
-8.5930236631042e-13 6.752604004157646e-12  0.
-1.1226371986512109e-12 5.321825603318748e-12  0.
-3.060784128015376e-12 5.535375575399949e-12  0.
0.0 9.022470795940041e-11  0.
-1.2181843354852402e-18 9.022470724835447e-11  0.
-7.818165069390988e-18 9.022470168632452e-11  0.
-4.282767585487955e-17 9.022466911403432e-11  0.
-2.012396287071296e-16 9.02245061353474e-11  0.
-8.176816845575568e-16 9.022380371883946e-11  0.
-2.906149901724502e-15 9.022116822722911e-11  0.
-9.13429861693607e-15 9.021246174906085e-11  0.
-2.5667180886574886e-14 9.018684879903369e-11  0.
-6.506908020149655e-14 9.011909408538055e-11  0.
-1.5003811618349515e-13 8.995653116962369e-11  0.
-3.1679050193622e-13 8.960021103080951e-11  0.
-6.160643491478655e-13 8.888227297026241e-11  0.
-1.1088315510415704e-12 8.754561131447952e-11  0.
-1.8548366570779324e-12 8.523583901235644e-11  0.
-2.8936877536974273e-12 8.151749279673369e-11  0.
-4.222742022522163e-12 7.592346651395226e-11  0.
-5.779968593848082e-12 6.803984851771792e-11  0.
-7.47437700409351e-12 5.765018600517939e-11  0.
-9.89495068296529e-12 4.561292231764179e-11  0.
-2.655239416420012e-11 4.775289940818403e-11  0.
0.0 6.643306198333518e-10  0.
-4.27413067497842e-18 6.643306174876877e-10  0.
-2.992275885854054e-17 6.6433059789764e-10  0.
-1.7792387389261095e-16 6.643304732617845e-10  0.
-9.084729102837957e-16 6.643297939172048e-10  0.
-3.994748346383173e-15 6.643266120413623e-10  0.
-1.524584244361681e-14 6.643137307414753e-10  0.
-5.1055066721776133e-14 6.642681766405304e-10  0.
-1.5159770519106103e-13 6.641259378622551e-10  0.
-4.0319903269578255e-13 6.637296308606005e-10  0.
-9.688458010415325e-13 6.627352530323693e-10  0.
-2.119487075700049e-12 6.604700616000423e-10  0.
-4.248348506520068e-12 6.557530033070295e-10  0.
-7.845844688565392e-12 6.467203374009597e-10  0.
-1.3412213475755156e-11 6.307356705748184e-10  0.
-2.1307647682400725e-11 6.044827048518507e-10  0.
-3.156391708244187e-11 5.643238684720006e-10  0.
-4.3738160279853386e-11 5.069564835907966e-10  0.
-5.717503586325873e-11 4.306092972572365e-10  0.
-7.679928237265145e-11 3.4233204317688323e-10  0.
-2.0210805262588138e-10 3.6121815551844183e-10  0.
0.0 4.234864521056908e-09  0.
-1.3491369777166115e-17 4.234864514203955e-09  0.
-1.0112469634690347e-16 4.2348644533881866e-09  0.
-6.478394538460268e-16 4.23486403688523e-09  0.
-3.571482038428327e-15 4.2348615832718356e-09  0.
-1.6935189089573972e-14 4.234849161520194e-09  0.
-6.936845791939555e-14 4.234794978961026e-09  0.
-2.475372018345158e-13 4.234589925342399e-09  0.
-7.77542915752151e-13 4.233909726624018e-09  0.
-2.1715003222166285e-12 4.23191175667213e-09  0.
-5.443054944364615e-12 4.226663542283866e-09  0.
-1.2345415263370283e-11 4.214228398420354e-09  0.
-2.5519654692752948e-11 4.187447788287843e-09  0.
-4.837141288465485e-11 4.1346827165709176e-09  0.
-8.451632062691092e-11 4.039036193121097e-09  0.
-1.3672768486269841e-10 3.87876361953641e-09  0.
-2.0559044904815324e-10 3.6294958074209576e-09  0.
-2.883965080906618e-10 3.268616275349379e-09  0.
-3.812363232886884e-10 2.783914472940798e-09  0.
-5.203232792242623e-10 2.2265773579421324e-09  0.
-1.3366980314632253e-09 2.372141039399552e-09  0.
0.0 2.3086817246591165e-08  0.
-3.833179280638853e-17 2.3086817228616616e-08  0.
-3.053087253027229e-16 2.3086817060390364e-08  0.
-2.0891684652081578e-15 2.3086815831305396e-08  0.
-1.2340755281720672e-14 2.3086808073782848e-08  0.
-6.274355489578778e-14 2.308676591512842e-08  0.
-2.7484631334256194e-13 2.3086568798594992e-08  0.
-1.0432343246018055e-12 2.308577262548487e-08  0.
-3.462375561109166e-12 2.3082972112059835e-08  0.
-1.0147633073584956e-11 2.3074308548580188e-08  0.
-2.6517184433233085e-11 2.305050492460787e-08  0.
-6.232537912513372e-11 2.2991882051135714e-08  0.
-1.327783221805751e-10 2.2861415215069006e-08  0.
-2.5813190129463796e-10 2.2597143214044187e-08  0.
-4.6060760442840135e-10 2.2106905405819785e-08  0.
-7.581860725630296e-10 2.1269584404992668e-08  0.
-1.1562682614176683e-09 1.994684515830084e-08  0.
-1.6409469204078275e-09 1.800800958965378e-08  0.
-2.1937509792005064e-09 1.538418864521874e-08  0.
-3.0467129525853954e-09 1.2401583314677195e-08  0.
-7.595021638983252e-09 1.3371631670397296e-08  0.
0.0 1.0608722896385091e-07  0.
-9.89402754504137e-17 1.0608722892118786e-07  0.
-8.310149319442329e-16 1.0608722850296148e-07  0.
-6.026034805948156e-15 1.0608722526862308e-07  0.
-3.784761445478346e-14 1.0608720357657551e-07  0.
-2.0492923803244323e-13 1.0608707801002888e-07  0.
-9.550549523481084e-13 1.0608645257371221e-07  0.
-3.841351116406458e-12 1.0608376975606242e-07  0.
-1.342890157985946e-11 1.0607380319494875e-07  0.
-4.119379399923997e-11 1.0604144626345539e-07  0.
-1.1194697111246248e-10 1.0594875172634624e-07  0.
-2.720247981879145e-10 1.0571218895537163e-07  0.
-5.958969198685918e-10 1.0516970890520435e-07  0.
-1.1854933741422613e-09 1.040432353836795e-07  0.
-2.1555261799992525e-09 1.0191070291509777e-07  0.
-3.6023093572802494e-09 9.820824746471557e-08  0.
-5.560650013436477e-09 9.228292825918914e-08  0.
-7.970847681699921e-09 8.351222960116349e-08  0.
-1.077203181715496e-08 7.159449601753195e-08  0.
-1.524408056597122e-08 5.833801984553128e-08  0.
-3.658878906795497e-08 6.386170464846123e-08  0.
0.0 4.0382009739798617e-07  0.
-2.3360184334141946e-16 4.038200973058664e-07  0.
-2.05506809001569e-15 4.0382009636444943e-07  0.
-1.567927341067007e-14 4.0382008871426347e-07  0.
-1.0394423395423773e-13 4.038200346074218e-07  0.
-5.952610760682495e-13 4.038197034568743e-07  0.
-2.9338748253051665e-12 4.0381795827917674e-07  0.
-1.2444530266222854e-11 4.0381005271742356e-07  0.
-4.5631964114295795e-11 4.0377918896201455e-07  0.
-1.4586227221663286e-10 4.0367459518484737e-07  0.
-4.104723240132332e-10 4.033638669049987e-07  0.
-1.0265527237035002e-09 4.0254678871211866e-07  0.
-2.302191803684975e-09 4.006270975852699e-07  0.
-4.6659831682461e-09 3.965640072620506e-07  0.
-8.607745553428509e-09 3.8875870340023255e-07  0.
-1.4543269889265634e-08 3.7506010717159923e-07  0.
-2.2635107731901332e-08 3.529693546084311e-07  0.
-3.2666712927430335e-08 3.2012371387153846e-07  0.
-4.457134569297185e-08 2.756239241906967e-07  0.
-6.433720093087718e-08 2.2808879663904123e-07  0.
-1.4716464386933475e-07 2.545834504615835e-07  0.
0.0 1.2469188654394043e-06  0.
-5.070216472681994e-16 1.2469188652575785e-06  0.
-4.64450420411369e-15 1.2469188633308481e-06  0.
-3.7042993794856333e-14 1.2469188469845274e-06  0.
-2.5747303684165753e-13 1.24691872589096e-06  0.
-1.5491631533880702e-12 1.2469179477181254e-06  0.
-8.025843574460902e-12 1.2469136370202071e-06  0.
-3.571265057609266e-11 1.2468931371343526e-06  0.
-1.3671796173031065e-10 1.246809470218371e-06  0.
-4.531693128957839e-10 1.2465150775570677e-06  0.
-1.312982562065631e-09 1.245614251384648e-06  0.
-3.358947350095843e-09 1.2431919546247152e-06  0.
-7.659791809192275e-09 1.2374114550245813e-06  0.
-1.570811924371713e-08 1.2250540712815676e-06  0.
-2.9192826788699965e-08 1.2011946534665074e-06  0.
-4.9521902142698384e-08 1.1592733593540505e-06  0.
-7.71971441829266e-08 1.0918132358169746e-06  0.
-1.1155311503089227e-07 9.920745081295804e-07  0.
-1.5328542291772434e-07 8.59208322228029e-07  0.
-2.2573503150490153e-07 7.279595451572754e-07  0.
-4.854341058388197e-07 8.331018520990133e-07  0.
0.0 3.050032591408616e-06  0.
-1.0147349383034143e-15 3.050032591080631e-06  0.
-9.628614546787207e-15 3.050032587493199e-06  0.
-7.9813007562235e-14 3.0500325558957734e-06  0.
-5.780778146704566e-13 3.05003231220885e-06  0.
-3.6316742267918485e-12 3.0500306782395677e-06  0.
-1.9659412915020405e-11 3.0500212230091243e-06  0.
-9.127924027935805e-11 3.049974287257052e-06  0.
-3.63099955935503e-10 3.0497750560477787e-06  0.
-1.2420054301539446e-09 3.0490509539095144e-06  0.
-3.6833695736130313e-09 3.046782812799963e-06  0.
-9.57062943487657e-09 3.0405978463926423e-06  0.
-2.2012200702460503e-08 3.025757163342687e-06  0.
-4.525730334342916e-08 2.99409885955716e-06  0.
-8.391381254030252e-08 2.933488005008689e-06  0.
-1.41480910086284e-07 2.828447458125456e-06  0.
-2.1871464889700236e-07 2.6624495149367023e-06  0.
-3.137526570458951e-07 2.4228506820156067e-06  0.
-4.3243173742776875e-07 2.117837351860583e-06  0.
-6.484564388654386e-07 1.863122554419771e-06  0.
-1.2877756502945514e-06 2.200233970085854e-06  0.
0.0 5.796773841834394e-06  0.
-1.876786130656621e-15 5.796773841294315e-06  0.
-1.8359266421163052e-14 5.796773835222974e-06  0.
-1.5733498999996415e-13 5.796773779983972e-06  0.
-1.1808471787660085e-12 5.796773338865098e-06  0.
-7.701250814513493e-12 5.796770270173216e-06  0.
-4.331390208005995e-11 5.796751826004291e-06  0.
-2.0874446945863888e-10 5.796656774931342e-06  0.
-8.587949729456308e-10 5.796239197022339e-06  0.
-3.017847202272398e-09 5.794678708181464e-06  0.
-9.111875607957406e-09 5.789702630733606e-06  0.
-2.387898191024165e-08 5.776045949654969e-06  0.
-5.492636735509612e-08 5.743425174267352e-06  0.
-1.1206823485704634e-07 5.674883336909049e-06  0.
-2.0496164955314296e-07 5.546819784926749e-06  0.
-3.391581950369057e-07 5.332073434911719e-06  0.
-5.133039352127674e-07 5.006435537307857e-06  0.
-7.226622523560884e-07 4.56192257073322e-06  0.
-9.933342548597444e-07 4.054005043565903e-06  0.
-1.506383087784121e-06 3.790738319971039e-06  0.
-2.702238750464145e-06 4.636398906209161e-06  0.
0.0 8.625729277442791e-06  0.
-3.218898040658858e-15 8.625729276629082e-06  0.
-3.232333421020082e-14 8.625729267262167e-06  0.
-2.8502948337130625e-13 8.625729179629405e-06  0.
-2.2055380780542578e-12 8.625728458580688e-06  0.
-1.4853743920351117e-11 8.625723281384823e-06  0.
-8.633941278299914e-11 8.625691130909233e-06  0.
-4.2974728753907607e-10 8.625519990349134e-06  0.
-1.820424755378108e-09 8.624745385786372e-06  0.
-6.545314511459523e-09 8.621781076526417e-06  0.
-2.002912905785966e-08 8.61219931777312e-06  0.
-5.261202464584418e-08 8.585900144902038e-06  0.
-1.2005445831935267e-07 8.523950335860163e-06  0.
-2.407922944668272e-07 8.397218631075391e-06  0.
-4.2938239330132646e-07 8.169731038522022e-06  0.
-6.887374110611353e-07 7.807746162041859e-06  0.
-1.0068075474874526e-06 7.2955094949868245e-06  0.
-1.3759657968896119e-06 6.666759700250917e-06  0.
-1.8744722823376153e-06 6.115003833190861e-06  0.
-2.8282283460329204e-06 6.263373980024057e-06  0.
-4.485147007271591e-06 7.854266277577893e-06  0.
0.0 1.0817691616848859e-05  0.
-5.146347830164546e-15 1.0817691615719678e-05  0.
-5.2845432043014173e-14 1.0817691602457076e-05  0.
-4.774753629317857e-13 1.0817691475411923e-05  0.
-3.79200531170224e-12 1.0817690403246595e-05  0.
-2.6247541052250917e-11 1.0817682495710607e-05  0.
-1.5692512679685737e-10 1.0817632006155128e-05  0.
-8.030257009307319e-10 1.0817355701399126e-05  0.
-3.488271157426397e-09 1.0816072676381971e-05  0.
-1.2788141236113897e-08 1.0811062088082195e-05  0.
-3.952300788040501e-08 1.0794696735384726e-05  0.
-1.0356067443940838e-07 1.074997155840912e-05  0.
-2.327959655298799e-07 1.0646864507993995e-05  0.
-4.5515007630300974e-07 1.044377187112847e-05  0.
-7.839744746604883e-07 1.0097971450539091e-05  0.
-1.2071626712596214e-06 9.584422251795427e-06  0.
-1.6910774974704334e-06 8.923070838345971e-06  0.
-2.2367495565056883e-06 8.2453708295722e-06  0.
-3.0170437731093125e-06 7.98927362787442e-06  0.
-4.405424192556325e-06 9.01986118436234e-06  0.
-6.144699787677358e-06 1.114126816741052e-05  0.
0.0 1.300762427394859e-05  0.
-7.69859318912858e-15 1.3007624272507583e-05  0.
-8.055811487175331e-14 1.3007624255292465e-05  0.
-7.429630024158044e-13 1.3007624087076775e-05  0.
-6.031266327007716e-12 1.3007622636904186e-05  0.
-4.272395839594811e-11 1.3007611697462305e-05  0.
-2.615927738773224e-10 1.3007540194091327e-05  0.
-1.3705369228718466e-09 1.3007139616033513e-05  0.
-6.0827648788120806e-09 1.3005238528692485e-05  0.
-2.2670837353737766e-08 1.2997684669109972e-05  0.
-7.059477043114017e-08 1.2972808474074563e-05  0.
-1.8395437890866945e-07 1.2905283416441163e-05  0.
-4.052669441212521e-07 1.2753744266388294e-05  0.
-7.672604960755925e-07 1.2468978714012659e-05  0.
-1.2689892027744944e-06 1.201397379206368e-05  0.
-1.8676053579512415e-06 1.1391603020139414e-05  0.
-2.517980875452041e-06 1.067829341154145e-05  0.
-3.2672703656957647e-06 1.0142700536429849e-05  0.
-4.4044486770397555e-06 1.045090805278817e-05  0.
-6.060565143114718e-06 1.2198610618819867e-05  0.
-7.643998852585312e-06 1.4044453181992197e-05  0.
0.0 1.560783651457653e-05  0.
-1.0787882124750891e-14 1.560783651290403e-05  0.
-1.1465905265256602e-13 1.5607836492638175e-05  0.
-1.0755537584995277e-12 1.560783629130561e-05  0.
-8.890819618553975e-12 1.5607834524572162e-05  0.
-6.419621926498381e-11 1.560782094439134e-05  0.
-4.0090415116235503e-10 1.5607730430377432e-05  0.
-2.141977424186688e-09 1.5607213315971744e-05  0.
-9.678967004900414e-09 1.5604713734153876e-05  0.
-3.6575755683034664e-08 1.559463526526654e-05  0.
-1.1455180281946962e-07 1.55612201457454e-05  0.
-2.9639962535252023e-07 1.547120175920735e-05  0.
-6.381166984978606e-07 1.5275034898485176e-05  0.
-1.1647034221937238e-06 1.4925887750298325e-05  0.
-1.8463921686066566e-06 1.4406700000633358e-05  0.
-2.6096789925260263e-06 1.375548368289032e-05  0.
-3.4388464633840855e-06 1.3117508988125344e-05  0.
-4.4982274072378845e-06 1.2891697136763228e-05  0.
-6.065893562673682e-06 1.3755075174509097e-05  0.
-7.837099135126333e-06 1.5381365612240966e-05  0.
-9.252758045857497e-06 1.633588442852026e-05  0.
0.0 1.7916360549326945e-05  0.
-1.4184048879494382e-14 1.7916360547575854e-05  0.
-1.526539008556863e-13 1.7916360526116206e-05  0.
-1.45156373969974e-12 1.7916360310091668e-05  0.
-1.2174503068190442e-11 1.7916358387437392e-05  0.
-8.926397300043243e-11 1.7916343385630883e-05  0.
-5.663592833572721e-10 1.791624182359131e-05  0.
-3.074081602279685e-09 1.791565240324568e-05  0.
-1.4094052094897449e-08 1.7912760869263977e-05  0.
-5.3858076282470416e-08 1.7900962454482626e-05  0.
-1.6941213191468693e-07 1.786163309131471e-05  0.
-4.35125567864074e-07 1.7756447480396505e-05  0.
-9.149337730681771e-07 1.7533755782463522e-05  0.
-1.6072381550312863e-06 1.715970718907604e-05  0.
-2.447623881497985e-06 1.6645698512303572e-05  0.
-3.3700009187861263e-06 1.605472946537483e-05  0.
-4.429074399929974e-06 1.5590103573470667e-05  0.
-5.901560895901149e-06 1.57375770408001e-05  0.
-7.75286635673805e-06 1.6854770092794575e-05  0.
-9.449114199701738e-06 1.782936911255594e-05  0.
-1.0649574244249963e-05 1.8333323372318657e-05  0.
0.0 2.0269435932947016e-05  0.
-1.75291396920079e-14 2.0269435931327635e-05  0.
-1.9047387832570074e-13 2.0269435911309777e-05  0.
-1.830154246234974e-12 2.0269435707760987e-05  0.
-1.552149523126956e-11 2.0269433876513383e-05  0.
-1.1514916060439358e-10 2.026941942374311e-05  0.
-7.39536366379509e-10 2.0269320407331098e-05  0.
-4.063044595704604e-09 2.02687388192312e-05  0.
-1.8838363622729758e-08 2.0265853162289117e-05  0.
-7.26139548199433e-08 2.0253970131593467e-05  0.
-2.2915324300975977e-07 2.021419229882307e-05  0.
-5.846946534916018e-07 2.010845505260164e-05  0.
-1.2033037875439748e-06 1.9890228011060832e-05  0.
-2.038850965005439e-06 1.954358799019822e-05  0.
-2.9996489295623528e-06 1.9105851066665534e-05  0.
-4.0942481941256165e-06 1.8648859430808002e-05  0.
-5.434435143544987e-06 1.8394726557731954e-05  0.
-7.181079822945991e-06 1.8811310794256948e-05  0.
-8.953755789448736e-06 1.97123813518088e-05  0.
-1.0285154113864896e-05 2.0168379663446973e-05  0.
-1.1549645219180062e-05 2.0942734112425008e-05  0.
0.0 2.2712613495789637e-05  0.
-2.037635455112016e-14 2.27126134945389e-05  0.
-2.2291758427962956e-13 2.2712613478981738e-05  0.
-2.1576959327812953e-12 2.271261331964347e-05  0.
-1.844360259787124e-11 2.2712611875012214e-05  0.
-1.3796699058781338e-10 2.2712600379761872e-05  0.
-8.937313200784046e-10 2.271252094968005e-05  0.
-4.9525505753231265e-09 2.2712050359217846e-05  0.
-2.3146233813845067e-08 2.270969620716538e-05  0.
-8.977217657785147e-08 2.269993639199075e-05  0.
-2.839520795497701e-07 2.2667160240342166e-05  0.
-7.20847525566628e-07 2.2580399929008178e-05  0.
-1.4585502544724132e-06 2.2404755581781567e-05  0.
-2.399362619184838e-06 2.2138579676348708e-05  0.
-3.438930323918619e-06 2.1829186752041857e-05  0.
-4.706143809103619e-06 2.1541375744118287e-05  0.
-6.286850358416626e-06 2.1457654127373027e-05  0.
-7.975684827890228e-06 2.1879950694210836e-05  0.
-9.520063674379517e-06 2.2391065462420477e-05  0.
-1.0651510112429174e-05 2.2600016990756713e-05  0.
-1.2090491606049147e-05 2.3291811240520863e-05  0.
0.0 2.5050611245489864e-05  0.
-2.229598885472775e-14 2.505061124480589e-05  0.
-2.449055086547727e-13 2.5050611236267352e-05  0.
-2.380930126372949e-12 2.50506111484498e-05  0.
-2.0447149909155772e-11 2.5050610348697035e-05  0.
-1.5371201144085925e-10 2.5050603954672805e-05  0.
-1.000839302470435e-09 2.5050559554254635e-05  0.
-5.5745753496946675e-09 2.5050295180024198e-05  0.
-2.6177739474516368e-08 2.504896632658707e-05  0.
-1.0190715380089186e-07 2.50434356450386e-05  0.
-3.2277981843819684e-07 2.502482734140541e-05  0.
-8.168310427179151e-07 2.497569820022824e-05  0.
-1.6350155734296103e-06 2.4877432680015022e-05  0.
-2.6381274371399024e-06 2.4733110592424658e-05  0.
-3.719195538270145e-06 2.4576149079848404e-05  0.
-5.110021202382752e-06 2.444780816009962e-05  0.
-6.820669330901089e-06 2.4438044493743487e-05  0.
-8.326881955500716e-06 2.4652309787210116e-05  0.
-9.728238657730913e-06 2.492407364025944e-05  0.
-1.1089740054987217e-05 2.5026907873811808e-05  0.
-1.230315366559173e-05 2.5138532173363576e-05  0.
0.0 2.7449999999999932e-05  0.
-2.2974642750569738e-14 2.7449999999999932e-05  0.
-2.5269827521637406e-13 2.7449999999999932e-05  0.
-2.4602627896253136e-12 2.7449999999999932e-05  0.
-2.1161247012190546e-11 2.7449999999999932e-05  0.
-1.593412067249397e-10 2.7449999999999932e-05  0.
-1.0392567288375741e-09 2.7449999999999932e-05  0.
-5.798413123819269e-09 2.7449999999999932e-05  0.
-2.727200546689319e-08 2.7449999999999932e-05  0.
-1.0629821027816338e-07 2.7449999999999932e-05  0.
-3.368429296826199e-07 2.7449999999999932e-05  0.
-8.515098293049486e-07 2.7449999999999932e-05  0.
-1.6981554090736407e-06 2.7449999999999932e-05  0.
-2.7217039954319897e-06 2.7449999999999932e-05  0.
-3.815096786306159e-06 2.7449999999999932e-05  0.
-5.2482835165128295e-06 2.7449999999999932e-05  0.
-6.995818192717587e-06 2.7449999999999932e-05  0.
-8.433287292850507e-06 2.7449999999999932e-05  0.
-9.783111105335672e-06 2.7449999999999932e-05  0.
-1.1320622486052848e-05 2.7449999999999932e-05  0.
-1.232748308757665e-05 2.7449999999999932e-05  0.
</DataArray>
<DataArray type="Float64" Name="sigma_xx" NumberOfComponents="1" format="ascii" >
5.171314954033333 
5.171313777196927 
5.171307881912666 
5.1712844562068465 
5.17120257725878 
5.170946559829302 
5.170222050487892 
5.16835501063184 
5.163943050945361 
5.154312432420481 
5.134790559413458 
5.097875233062153 
5.032497718548965 
4.92369809368398 
4.753071680685393 
4.5002919724090855 
4.1457757782303855 
3.6737160424848962 
3.0646579385340535 
2.067041748876618 
1.4114172275370145 
29.431821924053015 
29.431818610037283 
29.431799597467986 
29.43171708014168 
29.4314077275981 
29.430378595263193 
29.4273064416206 
29.419010488807004 
29.398571260719198 
29.352298602791638 
29.255458322552375 
29.067151069428466 
28.72544079823846 
28.14462876088441 
27.216989023637332 
25.82108333260002 
23.83736557032278 
21.16736734225632 
17.702422316911985 
12.267206023208738 
8.77997576864686 
249.45562654421485 
249.4556119614354 
249.45551913568832 
249.45508552143272 
249.45333497172751 
249.44711969343547 
249.42750138645656 
249.37188277118761 
249.22897726709073 
248.8935393341051 
248.16940761285258 
246.72333874820032 
244.03888179147506 
239.38672963352826 
231.8334927420284 
220.30905264813765 
203.741447363237 
181.2253091704185 
151.7308426457475 
105.15845208225456 
75.23780675144917 
1830.1069218074058 
1830.1068641313195 
1830.1064714787424 
1830.1044949264874 
1830.0959140182808 
1830.0634091694683 
1829.9547926703403 
1829.6312827958955 
1828.7638982261706 
1826.6524321852712 
1821.9503316818646 
1812.309255891375 
1794.0068949146012 
1761.6854029067758 
1708.3709317605717 
1625.9448452793363 
1506.1436608343465 
1341.8087144834162 
1124.3200092464485 
776.61458806888 
552.3098482063112 
11605.02802687313 
11605.027824768129 
11605.026363808996 
11605.018467697455 
11604.981730800597 
11604.833411921198 
11604.308976864704 
11602.668013294122 
11598.078273933326 
11586.495513885016 
11559.905187455417 
11503.974325308138 
11395.511167405777 
11200.55072172665 
10874.23776702234 
10363.66699510571 
9614.263029633637 
8577.559148967292 
7191.052215899104 
4945.093558195166 
3490.0185092168176 
62783.99315744474 
62783.99252464538 
62783.98769020142 
62783.95981524352 
62783.82149915716 
62783.22819817104 
62781.01311284477 
62773.74547651313 
62752.57755099237 
62697.306996037354 
62566.78371234223 
62285.79823099876 
61730.55976468331 
60717.37620742255 
59001.14890736439 
56290.34916467544 
52281.52141451556 
46698.68240449458 
39154.22796061107 
26763.90273540218 
18701.407124338537 
285206.9043984272 
285206.9026092473 
285206.8882546631 
285206.80052731 
285206.3388812886 
285204.24408657313 
285196.0143557929 
285167.7959469361 
285082.49783313886 
284852.9168002099 
284297.422332344 
283078.7947743218 
280636.1793885825 
276132.60112266935 
268448.7370382043 
256253.4014550032 
238159.9207976453 
212878.11981708085 
178381.59673428384 
120927.7847750739 
83380.62819853716 
1066320.6781005182 
1066320.6734994599 
1066320.6349410366 
1066320.386757052 
1066319.0098408102 
1066312.4329917503 
1066285.3548371317 
1066188.709011939 
1065886.926617959 
1065053.943416047 
1063001.2095058286 
1058442.0790647776 
1049239.1191690317 
1032224.5591804914 
1003215.3625023989 
957315.6581804018 
889504.9458248175 
795002.7056180862 
665023.9104969173 
445588.20946643804 
301625.0888005055 
3196567.068248334 
3196567.0574223883 
3196566.9631203883 
3196566.3276586165 
3196562.6321503343 
3196544.1465955414 
3196464.734902806 
3196170.9296885375 
3195227.8321747677 
3192574.67185453 
3185964.320905664 
3171230.8482368016 
3141577.6229922576 
3087221.6155577214 
2995739.0396499513 
2853289.0827830327 
2646370.471966682 
2361731.171268371 
1968334.5820247105 
1296348.7339943843 
854305.7020963912 
7420488.674012379 
7420488.65060709 
7420488.439668496 
7420486.959809111 
7420477.988552524 
7420431.233064132 
7420222.60103702 
7419425.762700088 
7416808.780742422 
7409352.170158474 
7390721.5785915 
7349476.894674182 
7267749.177751979 
7121442.21731123 
6882636.559194626 
6523934.958155553 
6022323.394772503 
5353184.540252826 
4428533.684153212 
2838483.5748116113 
1793000.840147656 
12769822.18042297 
12769822.133791283 
12769821.700826589 
12769818.554705199 
12769798.776330587 
12769691.912545022 
12769198.812958667 
12767262.41079675 
12760783.636893693 
12742196.790568434 
12696011.206709057 
12595552.319648542 
12402371.69318394 
12070731.640902169 
11557891.564465512 
10835992.222400106 
9896359.394985676 
8716097.199576154 
7096327.832733982 
4333307.846369692 
2533994.644008323 
15655483.913234465 
15655483.827319378 
15655483.008686049 
15655476.876060124 
15655437.086149886 
15655215.231580846 
15654161.066885758 
15649920.20371364 
15635517.076918596 
15594114.824842481 
15492579.733039878 
15277949.096775947 
14883287.209164286 
14246700.241744502 
13339461.736792203 
12188132.154293645 
10861209.026239797 
9359271.649924107 
7317836.5125955455 
4019987.3301248522 
1959074.0465805973 
14094431.25992404 
14094431.112842554 
14094429.679572979 
14094418.655898811 
14094345.149295801 
14093923.947978802 
14091870.661966192 
14083434.74325692 
14054429.55481378 
13971173.898990517 
13770904.093534801 
13363690.765784808 
12658178.831319824 
11611986.758887079 
10280645.17485877 
8829506.011409685 
7443556.303922679 
6078888.784235356 
4174636.423053635 
1636005.5515389354 
294497.4570459642 
12296187.345219329 
12296187.110263046 
12296184.776022442 
12296166.41190875 
12296041.044886421 
12295305.52885181 
12291639.444017377 
12276299.033733658 
12223009.199736526 
12070592.70904555 
11712584.599831522 
11019025.390329206 
9904157.893274155 
8419558.504929097 
6798173.1519155735 
5369422.749493062 
4315093.842440402 
3273913.4907966154 
1559166.6726165747 
47765.553701370554 
-359815.62859697966 
13444764.975880513 
13444764.624827728 
13444761.079642586 
13444732.649865136 
13444534.66406752 
13443349.603845697 
13437329.858817635 
13411743.429523002 
13322102.353701107 
13066959.44237 
12483468.754263813 
11415855.082416477 
9851260.9605464 
8030506.461882286 
6406744.568094058 
5331495.157269304 
4652188.545498412 
3487645.4762882283 
1447549.5275997198 
65799.46196305625 
-138942.81984119007 
13778314.540994158 
13778314.049492553 
13778309.018128427 
13778268.025967196 
13777977.806887228 
13776211.553814555 
13767096.829807237 
13727845.76985278 
13589377.534131212 
13197374.244487803 
12325399.929214077 
10828442.439136047 
8867100.792275082 
6936236.0226421105 
5594346.185592861 
4914251.9706337005 
4089948.51563328 
2227401.539485269 
7503.679133988451 
-792445.9612466039 
-628635.8140701188 
13082903.715674927 
13082903.069694947 
13082896.384301048 
13082841.21764943 
13082445.42410805 
13080004.140603418 
13067244.077965546 
13011708.593084872 
12814704.396742431 
12259852.093503505 
11057838.595930383 
9126648.711081976 
6908105.398814542 
5133135.787318463 
4147346.084379178 
3498146.67558927 
1971784.4724552927 
-391839.0226653328 
-1667757.5593200957 
-876366.3856216318 
1951.4940501538804 
13461725.0948118 
13461724.296849217 
13461715.968918066 
13461646.573039992 
13461143.59027746 
13458009.014126088 
13441463.266078483 
13368857.762565885 
13110201.692304656 
12384934.136074144 
10849602.08144307 
8533937.791179474 
6235036.088503543 
4816904.436174799 
4000973.1555660954 
2870901.7265752694 
865022.4638989621 
-1002779.5654075663 
-692627.5464552932 
229811.6347158767 
241108.99590448482 
13419309.647160854 
13419308.71981601 
13419298.98392962 
13419217.29291987 
13418620.911031894 
13414877.060279228 
13394976.917491373 
13307140.557109598 
12993279.990938757 
12116190.861503227 
10292445.519518174 
7683801.927369363 
5442789.856159294 
4441351.06244149 
3524985.1733203693 
1646132.9494546207 
-7674.328191190027 
-627635.1122779908 
265220.64427338727 
34723.48665938596 
-1196979.37355461 
13296107.224540662 
13296106.209958438 
13296095.520403342 
13296005.457117282 
13295345.121920066 
13291181.716521345 
13268959.034190923 
13170527.953916155 
12818174.474575395 
11835582.023375709 
9815475.666411975 
7026834.560661268 
4886149.261815772 