<?xml version="1.0"?>
<VTKFile type="UnstructuredGrid" version="0.1" byte_order="LittleEndian" compressor="vtkZLibDataCompressor">
<UnstructuredGrid>
<Piece NumberOfPoints="441" NumberOfCells="400">
<PointData>
<DataArray type="Float64" Name="displacement" NumberOfComponents="3" format="ascii" >
0.0 1.4972779090850396e-40  0.
7.232837912012119e-40 5.732882147067127e-40  0.
1.1710755755428484e-39 -1.2465314207054367e-40  0.
1.017154962832866e-39 -3.004893564579681e-41  0.
2.3127067542980924e-40 -7.549768139052134e-40  0.
-2.264955802503369e-39 -1.7408680967026744e-39  0.
-8.97702956119678e-39 -4.968006244251522e-39  0.
-3.2114419308531893e-38 -1.8162717276091352e-38  0.
-1.0730751322021369e-37 -5.700881278488894e-38  0.
-3.258056707658765e-37 -1.6142639408909036e-37  0.
-9.025088219394105e-37 -4.152586024503336e-37  0.
-2.2223146328466783e-36 -9.042306467198878e-37  0.
-4.820925973038194e-36 -1.694446530008886e-36  0.
-9.196033025185394e-36 -2.681036979398876e-36  0.
-1.5342689219656182e-35 -3.4641265115871346e-36  0.
-2.2379866384006555e-35 -3.5769890513183084e-36  0.
-2.831223243764149e-35 -2.349583135460349e-36  0.
-3.057251654647739e-35 6.579112413313025e-38  0.
-2.724459915657046e-35 3.4195080004307186e-36  0.
-1.6904790178148994e-35 5.633147063982883e-36  0.
-9.812926202015896e-36 1.242158718733904e-35  0.
0.0 2.469783621976628e-37  0.
3.071614154534022e-37 6.04798081067907e-38  0.
4.645264704206402e-37 9.831284535901446e-38  0.
4.487020166790499e-37 -1.1523919320873919e-37  0.
2.137489254514205e-37 -1.199264657683614e-37  0.
-2.3221045731253795e-37 -3.287705744410188e-37  0.
-1.4739282832302258e-36 -9.19513711921861e-37  0.
-5.1446896921370536e-36 -2.7747895903244865e-36  0.
-2.0829295942459877e-35 -1.2983439049611694e-35  0.
-8.308702922165232e-35 -4.948383990922892e-35  0.
-2.61415750387592e-34 -1.2957434305314242e-34  0.
-6.827554072225342e-34 -2.924037592630911e-34  0.
-1.5344764695225027e-33 -5.6327431257358105e-34  0.
-2.9689909281208415e-33 -8.747619238349257e-34  0.
-5.103331486297591e-33 -1.2639038682105404e-33  0.
-7.639931945857973e-33 -1.2848639495523584e-33  0.
-1.0022511026792154e-32 -1.0966099153270703e-33  0.
-1.1150701628699934e-32 -4.74578482286594e-35  0.
-1.0159616977267544e-32 1.1099804487324613e-33  0.
-6.391183817677302e-33 2.1652392199135464e-33  0.
-3.666675540955191e-33 4.688146976114595e-33  0.
0.0 1.3781070557065067e-34  0.
2.0379126140884687e-34 6.58990172899244e-35  0.
2.9245813995916478e-34 2.4671513276001877e-35  0.
2.7149099782261437e-34 -4.7163154115317283e-35  0.
1.4761323580933289e-34 -7.6355127662705e-35  0.
-2.881281945470242e-35 -1.0124391694033202e-34  0.
-3.513613712106497e-34 -2.236919317394785e-34  0.
-1.4207397732295496e-33 -8.533402839428497e-34  0.
-5.4000312692493104e-33 -3.155695985021702e-33  0.
-2.785227802678166e-32 -1.9431852490155337e-32  0.
-1.5297428131241938e-31 -1.0621127747704485e-31  0.
-5.599206118876318e-31 -2.980180474491044e-31  0.
-1.262833282453756e-30 -4.191331136918077e-31  0.
-2.35706102224377e-30 -6.6307777734149705e-31  0.
-3.5653265836882555e-30 -5.474447370177932e-31  0.
-4.963780259007428e-30 -8.767907095775722e-31  0.
-6.430256050698492e-30 -5.75195076131203e-31  0.
-7.383182979776506e-30 -3.9452934557862845e-31  0.
-7.024832854569533e-30 8.216278830888258e-31  0.
-4.410082757550941e-30 1.4062661226423388e-30  0.
-2.604386790867476e-30 3.3524718910794086e-30  0.
0.0 -6.841946181461274e-32  0.
6.979235848819529e-32 1.3953967740399582e-31  0.
1.4050989901739277e-31 -6.977947112256037e-32  0.
9.103704597390914e-32 2.0050463796214618e-32  0.
6.855097562771308e-32 -4.214461566872243e-32  0.
1.5840602440424686e-34 -2.6821630435000445e-32  0.
-8.005167799606699e-32 -5.401842946285018e-32  0.
-2.8484777039659273e-31 -1.5303275709846997e-31  0.
-1.1523134555623227e-30 -7.215830021959216e-31  0.
-5.633404819261274e-30 -3.812180892428982e-30  0.
-3.4883794783108916e-29 -2.5592389904691985e-29  0.
-3.080348394593763e-28 -2.461638486010079e-28  0.
-1.3303337358104145e-27 -8.424342461055695e-28  0.
-2.593375165357781e-27 -2.989555544492375e-28  0.
-3.1815871982636246e-27 -2.9423337582020392e-28  0.
-3.1081484472505406e-27 2.393850668778468e-28  0.
-3.599746352031128e-27 -6.844862225370291e-28  0.
-4.570470493702138e-27 -2.5062436830324094e-28  0.
-4.818138728106369e-27 6.241582979146125e-29  0.
-3.1378225278812227e-27 1.1551009974892368e-27  0.
-1.7591868473789464e-27 2.380684583901114e-27  0.
0.0 1.0937954473375938e-28  0.
5.902193302075344e-29 -5.042566720485491e-29  0.
4.806319694681039e-29 4.11081940636504e-29  0.
5.322449117595666e-29 -3.815818360314326e-29  0.
6.918185046754433e-30 -7.351188790011421e-30  0.
-6.149820601802242e-31 -3.4069888555486696e-31  0.
-9.765942921398411e-30 -8.959392860178093e-30  0.
-6.173093264310498e-29 -4.3331532221627003e-29  0.
-2.394116485858721e-28 -1.3592837807382804e-28  0.
-9.376342796827712e-28 -5.8271417843961155e-28  0.
-5.835281310962671e-27 -4.335823084776484e-27  0.
-3.361187537365429e-26 -2.4690661095387376e-26  0.
-4.361752030770809e-25 -3.9825388944914933e-25  0.
-2.4396842242657858e-24 -1.0212468592523914e-24  0.
-2.6520761377378363e-24 7.995255320963534e-25  0.
-1.3102100942143877e-24 3.352193600682771e-26  0.
-1.5950217567724933e-24 -2.765394059620989e-25  0.
-3.0115415152191337e-24 -8.106662217262951e-25  0.
-3.321066609618055e-24 5.191480632209556e-25  0.
-2.2379163084449803e-24 -1.7320884228750813e-25  0.
-2.8608897896607477e-24 2.715035165574232e-24  0.
0.0 1.0867533151276848e-20  0.
3.38686428718712e-25 1.0866946197163084e-20  0.
2.659981039326574e-26 1.0867100116432652e-20  0.
2.3009353450311168e-27 1.0867121760011005e-20  0.
-4.719875823408676e-29 1.0867124219732275e-20  0.
-8.71019654105102e-30 1.0867124191880924e-20  0.
-7.251462346986986e-28 1.0867123466136345e-20  0.
-8.431844063480078e-27 1.0867116941447424e-20  0.
-4.836326894450377e-26 1.0867090377535336e-20  0.
-3.112181639147309e-25 1.0866894391374312e-20  0.
-1.1266404330326674e-24 1.0866725879062746e-20  0.
-4.69797437471044e-24 1.0863848153093842e-20  0.
-2.2290406415281318e-23 1.0854833393482169e-20  0.
-2.6700295875044777e-22 1.0683635912077772e-20  0.
-3.2117983807590546e-22 9.450237363980086e-21  0.
-2.863451191074859e-22 9.012650036472933e-21  0.
-4.937778058296665e-22 8.120957737552436e-21  0.
-7.103311837194643e-22 7.414092800985851e-21  0.
-7.621741729129645e-22 5.3979013196879874e-21  0.
-8.24679042817479e-22 4.610750022335006e-21  0.
-2.742291032346162e-21 4.8090729634481076e-21  0.
0.0 6.8032403413854615e-19  0.
9.486453901246535e-24 6.810325206287042e-19  0.
3.9310154656469197e-25 6.810383159221839e-19  0.
-8.521699512998646e-27 6.810387940217005e-19  0.
-6.7330138933101955e-28 6.810387928754354e-19  0.
-3.0760613217686664e-29 6.810387920707468e-19  0.
-2.8359921719328022e-27 6.810387879826945e-19  0.
-7.418235058889748e-25 6.8103801118600075e-19  0.
-7.10133799171829e-24 6.810341718339924e-19  0.
-5.692231657950805e-23 6.810025003653397e-19  0.
-3.10965122715676e-22 6.805642097822074e-19  0.
-2.7592301359384646e-22 6.799018013887385e-19  0.
-1.752499310592583e-21 6.780384651940147e-19  0.
-4.214028900527792e-21 6.72150041957475e-19  0.
-7.918886638796275e-21 6.593924485400572e-19  0.
-1.3953714709375482e-20 6.408148631022041e-19  0.
-2.2922882742004763e-20 6.023956526410725e-19  0.
-3.3446488201660285e-20 5.478704598454593e-19  0.
-4.531146601871689e-20 4.75618024205966e-19  0.
-6.028063209065581e-20 3.782115303844508e-19  0.
-2.0023287349825585e-19 3.850709120278866e-19  0.
0.0 2.7332537606700023e-17  0.
-2.698395691697255e-23 2.7333436746268182e-17  0.
-6.523964000444162e-25 2.7333436946417873e-17  0.
-8.049000858855625e-26 2.7333437193573975e-17  0.
1.1510231855234563e-27 2.7333437101413498e-17  0.
-1.237568688071888e-28 2.7333437100682676e-17  0.
-3.0552701439476503e-26 2.7333437062673278e-17  0.
-7.1192259157339655e-25 2.7333434485782294e-17  0.
-2.5667651002103577e-22 2.7333213847880868e-17  0.
-1.4634676024853983e-21 2.7330999664017747e-17  0.
-6.2585606976617705e-21 2.732203957746978e-17  0.
-1.707394874700731e-20 2.730001212611439e-17  0.
-5.1635635158541356e-20 2.7237250722507086e-17  0.
-1.2321866790331882e-19 2.707469993621877e-17  0.
-2.656875483389437e-19 2.6712023403441682e-17  0.
-5.033711051001823e-19 2.5986838399563726e-17  0.
-8.540101868042805e-19 2.469826309405238e-17  0.
-1.3268605034367005e-18 2.2630228238509352e-17  0.
-1.8664970681516095e-18 1.9595389504728627e-17  0.
-2.5467831744423943e-18 1.5643229206049966e-17  0.
-8.362270520919605e-18 1.5948676508104013e-17  0.
0.0 9.441113212411547e-16  0.
-8.953551003906146e-23 9.441084690412107e-16  0.
-5.732723298743496e-24 9.441085881811107e-16  0.
1.5080965874128226e-25 9.441085822206185e-16  0.
6.2256549504821954e-27 9.441085821697325e-16  0.
-1.177899684601725e-28 9.441085821750934e-16  0.
-1.1070987399623186e-25 9.441085820041531e-16  0.
-1.64411986928164e-23 9.44108565331092e-16  0.
-9.693558802586468e-22 9.441078990857042e-16  0.
-1.9119735426635305e-20 9.44091008875451e-16  0.
-9.931484141451089e-20 9.439845076907383e-16  0.
-4.033076510037291e-19 9.435332723381512e-16  0.
-1.2862482963449502e-18 9.419705609790991e-16  0.
-3.451797192127304e-18 9.375661391932263e-16  0.
-7.877565195688462e-18 9.269959648147654e-16  0.
-1.579630944332275e-17 9.048129809240885e-16  0.
-2.8061146560735217e-17 8.636024350618534e-16  0.
-4.4854252957723884e-17 7.94936954485181e-16  0.
-6.494916318505179e-17 6.916101953250972e-16  0.
-9.035159364973552e-17 5.545478527796606e-16  0.
-2.977810199709651e-16 5.674701189583355e-16  0.
0.0 2.770771711314059e-14  0.
-4.290025923375569e-22 2.7707720823644663e-14  0.
1.4892379456879843e-23 2.7707720463664085e-14  0.
4.161312123758319e-25 2.7707720467415078e-14  0.
1.299726760153655e-26 2.770772046790968e-14  0.
-4.00466509715512e-27 2.7707720467928677e-14  0.
-2.148856141594069e-25 2.7707720467450056e-14  0.
-1.9915414298126453e-23 2.770772039604806e-14  0.
-6.7754461372635165e-21 2.7707713346852943e-14  0.
-1.3345230058775927e-19 2.7707608466632283e-14  0.
-1.3166132263088543e-18 2.770638031641833e-14  0.
-6.706872663482999e-18 2.7699313970699903e-14  0.
-2.5988298660465864e-17 2.7669872992484094e-14  0.
-7.750810557106215e-17 2.757550596812323e-14  0.
-1.9460404024617677e-16 2.7325296394393843e-14  0.
-4.147467926829917e-16 2.6761812447184793e-14  0.
-7.767660691028697e-16 2.565537740953039e-14  0.
-1.2861611828724926e-15 2.3734243258978876e-14  0.
-1.91773965756551e-15 2.0751835396632054e-14  0.
-2.727326228386717e-15 1.671725969826863e-14  0.
-9.025254478599589e-15 1.717827824664839e-14  0.
0.0 6.809394234989119e-13  0.
7.420509142590679e-22 6.809394252656951e-13  0.
1.4176445639901575e-23 6.809394256287432e-13  0.
3.811747382488052e-25 6.80939425658358e-13  0.
8.528641888560282e-27 6.809394256595388e-13  0.
-3.229006585906721e-27 6.809394256595704e-13  0.
-3.734527319732594e-24 6.809394256556212e-13  0.
-1.2361231420631576e-22 6.809394253213116e-13  0.
-3.232460022489028e-20 6.809394061615947e-13  0.
-6.360461713572009e-19 6.809389844667952e-13  0.
-9.002703255801195e-18 6.809320349629525e-13  0.
-8.252897412968242e-17 6.808555756602303e-13  0.
-3.8598657521184964e-16 6.80449202488893e-13  0.
-1.3898984654042082e-15 6.788711963154544e-13  0.
-3.844874432031491e-15 6.741587345096131e-13  0.
-8.97246573348748e-15 6.625142390721621e-13  0.
-1.7738917702387533e-14 6.38100987090445e-13  0.
-3.081697542240134e-14 5.935358937351877e-13  0.
-4.733754966693895e-14 5.218132898259897e-13  0.
-6.925514282857405e-14 4.2262917220439985e-13  0.
-2.2960714443119983e-13 4.363995555581593e-13  0.
0.0 1.377129659012721e-11  0.
6.770285305059358e-22 1.3771296586398165e-11  0.
-2.964247642655756e-23 1.377129658667907e-11  0.
-2.3816586833642667e-25 1.3771296586685459e-11  0.
9.645230231589906e-27 1.377129658668677e-11  0.
-1.367259098096167e-26 1.3771296586686803e-11  0.
-1.4629777616957299e-24 1.377129658667458e-11  0.
-1.6046179505681207e-21 1.3771296584574293e-11  0.
-1.0005389964713443e-19 1.3771296533182082e-11  0.
-2.344466383828852e-18 1.377129518047919e-11  0.
-4.1492162242507175e-17 1.3771267940926885e-11  0.
-5.254390013912415e-16 1.3770869005571225e-11  0.
-4.264411943560982e-15 1.3766954041651065e-11  0.
-1.8211424059025805e-14 1.3747832096112317e-11  0.
-6.038827373297357e-14 1.367917960912364e-11  0.
-1.5373870928188727e-13 1.3489514542899801e-11  0.
-3.3084250946880313e-13 1.3056062933240923e-11  0.
-6.019249493994958e-13 1.2216596848022766e-11  0.
-9.647644052289002e-13 1.0805918506313561e-11  0.
-1.4520475292333422e-12 8.806074176748263e-12  0.
-4.825802102339171e-12 9.149054093374734e-12  0.
0.0 2.2437021140608589e-10  0.
-3.1110799377773532e-21 2.243702114019472e-10  0.
-4.060124325232257e-24 2.2437021140114865e-10  0.
2.244566871181015e-26 2.2437021140110574e-10  0.
2.0147728921273726e-26 2.2437021140110667e-10  0.
-3.429426032106084e-25 2.2437021140110634e-10  0.
-6.079180026147268e-23 2.243702114010465e-10  0.
-6.0276741058042935e-21 2.2437021139744883e-10  0.
-2.693078212252708e-19 2.2437021127589422e-10  0.
-6.987889575092957e-18 2.2437020781502462e-10  0.
-1.4435390973749374e-16 2.2437012753202517e-10  0.
-2.261051446447981e-15 2.2436868798778036e-10  0.
-2.5122632104790276e-14 2.2435000908915643e-10  0.
-1.7811857632187192e-13 2.2418836533029928e-10  0.
-6.884472295021308e-13 2.234690499134277e-10  0.
-2.081068285601173e-12 2.2110332259652066e-10  0.
-4.829109562066126e-12 2.1511128077331017e-10  0.
-9.490181327677516e-12 2.0256829527513114e-10  0.
-1.5790697907913362e-11 1.803936305961267e-10  0.
-2.4780179801816247e-11 1.4807775592670054e-10  0.
-8.197773697694333e-11 1.5498282194404403e-10  0.
0.0 2.868235910246938e-09  0.
-3.0755103204436543e-21 2.868235910242857e-09  0.
6.700663992921528e-24 2.8682359102432856e-09  0.
-3.5923927484763135e-24 2.8682359102433104e-09  0.
8.560338085525877e-26 2.868235910243307e-09  0.
5.321266713048751e-25 2.868235910243306e-09  0.
-3.7849153031181324e-22 2.868235910243054e-09  0.
-1.6031624271579125e-20 2.8682359102364117e-09  0.
-6.158446851832018e-19 2.868235910001457e-09  0.
-1.7449731605233684e-17 2.8682359026556133e-09  0.
-4.0375998033267495e-16 2.8682357130707617e-09  0.
-7.343524908052865e-15 2.8682318106618923e-09  0.
-1.002774988780101e-13 2.8681702511016434e-09  0.
-9.625510785946808e-13 2.8674722948012548e-09  0.
-5.863596290158123e-12 2.862231930134882e-09  0.
-2.0292202075730614e-11 2.8412109655115666e-09  0.
-5.518564784974271e-11 2.778636242599289e-09  0.
-1.1535789292050719e-10 2.6350297281827934e-09  0.
-2.053673948193071e-10 2.3640014258449767e-09  0.
-3.3399873663315323e-10 1.957053117506127e-09  0.
-1.1004697257721168e-09 2.069059209645044e-09  0.
0.0 2.7824443740808723e-08  0.
5.960063342441764e-22 2.7824443740810933e-08  0.
-9.815438784585417e-23 2.7824443740809173e-08  0.
4.673056294433156e-24 2.782444374080905e-08  0.
6.354729135830034e-24 2.782444374080904e-08  0.
5.795771627271896e-24 2.782444374080904e-08  0.
-3.3690325178588764e-22 2.7824443740809183e-08  0.
-3.0764187531776826e-20 2.782444374080175e-08  0.
-1.2310023124037408e-18 2.7824443740410733e-08  0.
-3.7375915883603167e-17 2.78244437272078e-08  0.
-9.424595386617758e-16 2.7824443358126573e-08  0.
-1.911869689937644e-14 2.7824434945556952e-08  0.
-3.017342998510307e-13 2.7824283253671554e-08  0.
-3.533185882135115e-12 2.782220885913332e-08  0.
-2.8738669569776785e-11 2.7802001039005136e-08  0.
-1.4735067312175585e-10 2.7673073359861298e-08  0.
-4.5047822136774186e-10 2.721327249423272e-08  0.
-1.0832180793911347e-09 2.5994776835942523e-08  0.
-2.021668979778398e-09 2.351325151698421e-08  0.
-3.5064231864024554e-09 1.9666468342167296e-08  0.
-1.1266142120131742e-08 2.105352986398834e-08  0.
0.0 1.962124976115459e-07  0.
4.674319850741931e-22 1.9621249761154377e-07  0.
2.2838190958659356e-22 1.962124976115452e-07  0.
-9.321427493323794e-24 1.9621249761154512e-07  0.
-6.1552793981168655e-24 1.9621249761154512e-07  0.
7.832956783873998e-24 1.9621249761154512e-07  0.
-6.82125335367485e-23 1.9621249761154504e-07  0.
-5.514605399283954e-20 1.962124976115284e-07  0.
-2.174492568537435e-18 1.9621249761095358e-07  0.
-6.984919436010755e-17 1.9621249759072447e-07  0.
-1.8801753080729936e-15 1.962124969891578e-07  0.
-4.138215109598061e-14 1.9621248218985218e-07  0.
-7.249339216500362e-13 1.962121882161681e-07  0.
-9.755438981768586e-12 1.962076141708132e-07  0.
-9.592524321883692e-11 1.9615438056662647e-07  0.
-6.448357202720489e-10 1.9571839582721916e-07  0.
-2.7119592428083544e-09 1.9341847412768282e-07  0.
-7.202343120101358e-09 1.8626760716798166e-07  0.
-1.5078574170193852e-08 1.699254755526837e-07  0.
-2.7344603642448474e-08 1.4390719341555617e-07  0.
-8.510115695095507e-08 1.569233277369715e-07  0.
0.0 9.513359453202758e-07  0.
3.7085192449375215e-22 9.513359453202834e-07  0.
-2.932319161603625e-22 9.513359453202831e-07  0.
-2.896983647492382e-22 9.513359453202839e-07  0.
3.5549261153871214e-22 9.513359453202829e-07  0.
4.847215907129449e-22 9.513359453202839e-07  0.
-3.205054557025035e-22 9.513359453202842e-07  0.
-8.664391302421405e-20 9.513359453202687e-07  0.
-3.434037681753895e-18 9.513359453195425e-07  0.
-1.15160842005938e-16 9.513359452931231e-07  0.
-3.2564961394846686e-15 9.513359444705332e-07  0.
-7.614744033717469e-14 9.513359230655879e-07  0.
-1.4396660677294736e-12 9.513354662809774e-07  0.
-2.137514602044325e-11 9.51327685912635e-07  0.
-2.39824969972903e-10 9.512251614418537e-07  0.
-1.926909569059713e-09 9.502332249122109e-07  0.
-1.035493934953175e-08 9.436013286220448e-07  0.
-3.464048287176053e-08 9.157771235164475e-07  0.
-7.916679533677716e-08 8.436210733471747e-07  0.
-1.5713025031452002e-07 7.258696430445622e-07  0.
-4.473212803725002e-07 8.097714010760616e-07  0.
0.0 2.9706503915181795e-06  0.
-1.6837012029033246e-22 2.9706503915181702e-06  0.
1.4726110259031362e-21 2.9706503915181753e-06  0.
6.881841740504437e-22 2.9706503915181766e-06  0.
9.362875200496838e-22 2.9706503915181753e-06  0.
1.9389337438258684e-21 2.9706503915181766e-06  0.
4.254465640207259e-22 2.970650391518177e-06  0.
-1.203811641039251e-19 2.9706503915181588e-06  0.
-4.876082102146034e-18 2.9706503915173964e-06  0.
-1.6861061053294536e-16 2.9706503914886537e-06  0.
-4.94321500297669e-15 2.970650390562734e-06  0.
-1.2076668982067425e-13 2.9706503654449223e-06  0.
-2.4108857091715423e-12 2.9706498017742814e-06  0.
-3.8365696732505917e-11 2.9706395420997547e-06  0.
-4.712459787026959e-10 2.9704926473307197e-06  0.
-4.280286391316985e-09 2.9688909895785454e-06  0.
-2.710194850402334e-08 2.9563977975140056e-06  0.
-1.1156975185703794e-07 2.8913323720029505e-06  0.
-2.923668410931024e-07 2.692205998216842e-06  0.
-6.321281728016365e-07 2.3715629597914234e-06  0.
-1.553375729784796e-06 2.7146463373625315e-06  0.
0.0 5.7817394340619585e-06  0.
-4.944112696278503e-23 5.781739434061965e-06  0.
-1.6965218154210844e-21 5.781739434061962e-06  0.
7.68833969411468e-22 5.78173943406196e-06  0.
-1.799398476859161e-21 5.78173943406196e-06  0.
-1.1306304573716307e-21 5.781739434061957e-06  0.
-2.129932555024906e-21 5.781739434061956e-06  0.
-1.548709580665144e-19 5.781739434061947e-06  0.
-6.239853859402277e-18 5.781739434061297e-06  0.
-2.2030757646589646e-16 5.78173943403655e-06  0.
-6.619382706316764e-15 5.781739433220258e-06  0.
-1.6659164501794685e-13 5.781739410445077e-06  0.
-3.4496252644842486e-12 5.781738880705641e-06  0.
-5.749009509877296e-11 5.781728816655481e-06  0.
-7.497962947627193e-10 5.7815758134978285e-06  0.
-7.379822185944702e-09 5.779779488180111e-06  0.
-5.220670380989297e-08 5.764064156885311e-06  0.
-2.49178772561237e-07 5.6701380472450345e-06  0.
-7.600465607830963e-07 5.338277950435819e-06  0.
-1.6842811425405522e-06 4.91269525061743e-06  0.
-3.374090073615824e-06 5.6720542755515986e-06  0.
0.0 8.064545636370519e-06  0.
2.489882660461067e-21 8.064545636370522e-06  0.
-2.0051993678938723e-21 8.064545636370522e-06  0.
1.3185738588763024e-21 8.06454563637052e-06  0.
3.016188232880672e-22 8.064545636370519e-06  0.
-8.305754963352093e-22 8.06454563637052e-06  0.
-3.1747885366391543e-21 8.064545636370519e-06  0.
-1.7350786294184748e-19 8.064545636370515e-06  0.
-7.221940827472245e-18 8.064545636370144e-06  0.
-2.58160857178242e-16 8.064545636355728e-06  0.
-7.868782935039709e-15 8.064545635873766e-06  0.
-2.0148114034829127e-13 8.064545622199158e-06  0.
-4.261447745240456e-12 8.064545297920177e-06  0.
-7.293217113461831e-11 8.064538969956301e-06  0.
-9.846737163059287e-10 8.064439729234022e-06  0.
-1.0152895508029004e-08 8.063215282183775e-06  0.
-7.67475832460539e-08 8.051855468761503e-06  0.
-4.030978179729162e-07 7.977035320607524e-06  0.
-1.3821093214088295e-06 7.68952059034799e-06  0.
-2.9683766724977304e-06 7.437554633501e-06  0.
-4.40642699203145e-06 8.206205394073695e-06  0.
0.0 1.0450000000000013e-05  0.
-2.544263660630892e-21 1.0450000000000013e-05  0.
2.1810580978997643e-21 1.0450000000000013e-05  0.
-2.2184553354007077e-21 1.0450000000000013e-05  0.
2.934386254057868e-21 1.0450000000000013e-05  0.
-2.3074128975389316e-21 1.0450000000000013e-05  0.
-3.365794365906186e-21 1.0450000000000013e-05  0.
-1.8229121248906174e-19 1.0450000000000013e-05  0.
-7.576997723699904e-18 1.0450000000000013e-05  0.
-2.7210139619398375e-16 1.0450000000000013e-05  0.
-8.332820221215932e-15 1.0450000000000013e-05  0.
-2.1457812740597039e-13 1.0450000000000013e-05  0.
-4.5699342132290415e-12 1.0450000000000013e-05  0.
-7.890073777649942e-11 1.0450000000000013e-05  0.
-1.077281570186392e-09 1.0450000000000013e-05  0.
-1.12833161699563e-08 1.0450000000000013e-05  0.
-8.719596183492919e-08 1.0450000000000013e-05  0.
-4.74180599601774e-07 1.0450000000000013e-05  0.
-1.697433465303198e-06 1.0450000000000013e-05  0.
-3.568861528248016e-06 1.0450000000000013e-05  0.
-4.431093736309457e-06 1.0450000000000013e-05  0.
</DataArray>
<DataArray type="Float64" Name="sigma_xx" NumberOfComponents="1" format="ascii" >
0.0 
0.0 
0.0 
0.0 
0.0 
0.0 
0.0 
0.0 
0.0 
0.0 
0.0 
0.0 
0.0 
0.0 
0.0 
0.0 
0.0 
0.0 
0.0 
0.0 
0.0 
0.0 
0.0 
0.0 
0.0 
0.0 
0.0 
0.0 
0.0 
0.0 
0.0 
0.0 
0.0 
0.0 
0.0 
0.0 
0.0 
0.0 
0.0 
0.0 
0.0 
0.0 
0.0 
0.0 
0.0 
0.0 
0.0 
0.0 
0.0 
0.0 
0.0 
0.0 
0.0 
0.0 
0.0 
0.0 
0.0 
0.0 
0.0 
0.0 
0.0 
0.0 
0.0 
0.0 
0.0 
0.0 
0.0 
0.0 
0.0 
0.0 
0.0 
0.0 
0.0 
0.0 
0.0 
0.0 
0.0 
0.0 
0.0 
0.0 
0.0 
0.0 
0.0 
0.0 
0.0 
0.0 
0.0 
0.0 
0.0 
0.0 
0.0 
0.0 
0.0 
0.0 
0.0 
0.0 
0.0 
0.0 
0.0 
0.0 
0.0 
0.0 
0.0 
0.0 
0.0 
1.8651746813702624e-06 
1.8651746813702624e-06 
1.8651746813702624e-06 
1.8651746813702624e-06 
1.8651746813702624e-06 
1.8651746813702624e-06 
1.8651746813702624e-06 
1.8651746813702624e-06 
1.8651746813702624e-06 
1.8651746813702624e-06 
1.8651746813702624e-06 
1.8651746813702624e-06 
1.8651746813702624e-06 
1.8651746813702624e-06 
1.8651746813702624e-06 
1.7874590696465016e-06 
1.6320278461989797e-06 
1.4044321261508226e-06 
1.2490009027033007e-06 
1.0269562977782694e-06 
8.104628079763639e-07 
7.647216193618076e-05 
7.647216193618076e-05 
7.647216193618076e-05 
7.647216193618076e-05 
7.647216193618076e-05 
7.647216193618076e-05 
7.647216193618076e-05 
7.647216193618076e-05 
7.647216193618076e-05 
7.647216193618076e-05 
7.631673071273323e-05 
7.608913499268508e-05 
7.586153927263692e-05 
7.525091660909308e-05 
7.410183577860605e-05 
7.17870207722626e-05 
6.754041770307137e-05 
6.112332862073797e-05 
5.2441384568169256e-05 
3.791966740607221e-05 
2.8288482667448975e-05 
0.0026417090737140816 
0.0026417090737140816 
0.0026417090737140816 
0.0026417090737140816 
0.0026417090737140816 
0.0026417090737140816 
0.0026417090737140816 
0.0026417090737140816 
0.0026417090737140816 
0.002641559193605757 
0.0026404323172357627 
0.0026373347949970585 
0.0026292912291836492 
0.0026097013439141383 
0.002568639745348377 
0.002490885275818754 
0.0023574586727193028 
0.002149391775674302 
0.0018490764475131976 
0.0013366863171881955 
0.0009996115046817518 
0.07750531327843643 
0.07750531327843643 
0.07750531327843643 
0.07750531327843643 
0.07750531327843643 
0.07750531327843643 
0.07750531327843643 
0.07750531327843643 
0.07750501906933491 
0.07750227126734896 
0.07748778840799272 
0.07743085062017482 
0.07725398654123691 
0.07679011870820315 
0.07574614269145738 
0.07367056409357528 
0.0699866498088397 
0.06406971619909993 
0.055320786840340454 
0.04005479281588008 
0.02994119396859672 
1.9039869458836727 
1.9039869458836727 
1.9039869458836727 
1.9039869458836727 
1.9039869458836727 
1.9039869458836727 
1.9039869458836727 
1.9039869458836727 
1.9039854082247836 
1.903965818339514 
1.9037939669175323 
1.902968088662859 
1.8999148199139164 
1.891081180538378 
1.8694545189656957 
1.8239790733343135 
1.7394760798428162 
1.5991959201322454 
1.3861650771662677 
1.005039107493388 
0.7508655808230453 
38.48204916945262 
38.48204916945262 
38.48204916945262 
38.48204916945262 
38.48204916945262 
38.48204916945262 
38.48204916945262 
38.482049097288126 
38.48204340184401 
38.48194908839807 
38.48081499557841 
38.47192815986665 
38.43291407901182 
38.299983579070926 
37.944364633668556 
37.1369656526621 
35.56093111645174 
32.838371843979516 
28.579814592699638 
20.74453957501276 
15.467759184595302 
626.3300860842589 
626.3300860842589 
626.3300860842589 
626.3300860842589 
626.3300860842589 
626.3300860842589 
626.3300860842589 
626.3300855013919 
626.3300678766013 
626.3297212538708 
626.3245721560561 
626.2702773318639 
625.8993390517719 
624.4257910736904 
619.8421197201042 
608.6007973332694 
585.1279333668467 
542.8695215914379 
474.42425915034096 
344.49121636415106 
256.4081521716498 
7992.520614541473 
7992.520614541473 
7992.520614541473 
7992.520614541473 
7992.520614541473 
7992.520614541473 
7992.520614541473 
7992.5206127207075 
7992.520566069137 
7992.519535132689 
7992.50173903476 
7992.272164702993 
7990.192101586799 
7978.013234383183 
7934.753157595728 
7813.486314273141 
7543.773018980901 
7030.537308694294 
6169.137090275554 
4475.993159802625 
3312.4086977920338 
77281.96932887951 
77281.96932887951 
77281.96932887951 
77281.96932887951 
77281.96932887951 
77281.96932887951 
77281.96932887951 
77281.96932511032 
77281.96921844008 
77281.96664644746 
77281.91702913164 
77281.17756310434 
77273.05021293927 
77211.10213288473 
76907.00232133304 
75956.29777945863 
73596.59072141419 
68895.05680738314 
60646.18280909315 
43857.77222014052 
32275.290995475974 
541445.0693407734 
541445.0693407734 
541445.0693407734 
541445.0693407734 
541445.0693407734 
541445.0693407734 
541445.0693407012 
541445.0693338345 
541445.0691205605 
541445.0636116617 
541444.9479676784 
541443.0306705518 
541418.8289346588 
541197.4527195715 
539817.5120378793 
534299.4052001475 
519449.18474153534 
487541.91964318044 
429786.149278649 
308251.59235004213 
223078.61355542732 
2587508.189104714 
2587508.189104714 
2587508.189104714 
2587508.189104714 
2587508.189104714 
2587508.189104714 
2587508.1891044974 
2587508.1890928736 
2587508.188715309 
2587508.1784229088 
2587507.9479507115 
2587503.8084143256 
2587445.998378631 
2586843.230662924 
2582398.1333093923 
2560621.403995782 
2492426.7313023903 
2339130.855973153 
2051932.9049986233 
1443553.747086004 
1019390.828881544 
7781440.061249498 
7781440.061249498 
7781440.061249498 
7781440.061249498 
7781440.061249498 
7781440.061249498 
7781440.06124906 
7781440.061231151 
7781440.060634096 
7781440.043684233 
7781439.645134433 
7781432.046971534 
7781317.74915146 
7780008.515562797 
7769113.35310906 
7707230.324645752 
7482716.786629247 
6959235.3229716 
5973955.674050999 
3999717.740384588 
2659601.5122361025 
13558673.355302539 
13558673.355302539 
13558673.355302539 
13558673.355302539 
13558673.355302539 
13558673.355302539 
13558673.355301883 
13558673.355277125 
13558673.354429713 
13558673.329644956 
13558672.725680731 
13558660.702516634 
13558469.946893789 
13556133.726019554 
13534969.60579297 
13401162.144239452 
12854896.572487611 
11510148.500740997 
9205691.808813684 
5297852.698480412 
2781187.5303400317 
14299624.277721463 
14299624.277721463 
14299624.277721463 
14299624.277721463 
14299624.277721463 
14299624.277721463 
14299624.277720667 
14299624.277689584 
14299624.27660524 
14299624.244230896 
14299623.4358152 
14299606.86232855 
14299334.27180765 
14295842.264794573 
14262345.41896459 
14034473.523854882 
13017660.2276557 
10341869.395628007 
6405996.594823353 
2130731.3790481007 
-65248.83391415817 
13101654.055325702 
13101654.055325702 
13101654.055325702 
13101654.055325702 
13101654.055325702 
13101654.055325702 
13101654.055324763 
13101654.05528922 
13101654.054033786 
13101654.01609371 
13101653.055076491 
13101633.013008017 
13101296.405010592 
13096870.607650623 
13052977.833119381 
12741148.01518841 
11269202.241692914 
7181436.030780477 
1876410.5966439792 
-73612.18640300713 
393524.67673679837 
13390410.634442413 
13390410.634442413 
13390410.634442413 
13390410.634442413 
13390410.634442413 
13390410.634442413 
13390410.634441402 
13390410.634404354 
13390410.633086497 
13390410.59309753 
13390409.575420078 
13390388.23163253 
13390027.300283398 
13385240.725579064 
13337250.462467631 
12991288.675498247 
11326606.805884194 
6608889.674232306 
758442.2302176682 
537600.078803827 
2811752.577336388 
</DataArray>
<DataArray type="Float64" Name="sigma_yy" NumberOfComponents="1" format="ascii" >
0.0 
0.0 
0.0 
0.0 
0.0 
0.0 
0.0 
0.0 
0.0 
0.0 
0.0 
0.0 
0.0 
0.0 
0.0 
0.0 
0.0 
0.0 
0.0 
0.0 
0.0 
0.0 
0.0 
0.0 
0.0 
0.0 
0.0 
0.0 
0.0 
0.0 
0.0 
0.0 
0.0 
0.0 
0.0 
0.0 
0.0 
0.0 
0.0 
0.0 
0.0 
0.0 
0.0 
0.0 
0.0 
0.0 
0.0 
0.0 
0.0 
0.0 
0.0 
0.0 
0.0 
0.0 
0.0 
0.0 
0.0 
0.0 
0.0 
0.0 
0.0 
0.0 
0.0 
0.0 
0.0 
0.0 
0.0 
0.0 
0.0 
0.0 
0.0 
0.0 
0.0 
0.0 
0.0 
0.0 
0.0 
0.0 
0.0 
0.0 
0.0 
0.0 
0.0 
0.0 
0.0 
0.0 
0.0 
0.0 
0.0 
0.0 
0.0 
0.0 
0.0 
0.0 
0.0 
0.0 
0.0 
0.0 
0.0 
0.0 
0.0 
0.0 
0.0 
0.0 
0.0 
3.4638958368304876e-06 
3.4638958368304876e-06 
3.4638958368304876e-06 
3.4638958368304876e-06 
3.4638958368304876e-06 