<?xml version="1.0"?>
<VTKFile type="UnstructuredGrid" version="0.1" byte_order="LittleEndian" compressor="vtkZLibDataCompressor">
<UnstructuredGrid>
<Piece NumberOfPoints="441" NumberOfCells="400">
<PointData>
<DataArray type="Float64" Name="displacement" NumberOfComponents="3" format="ascii" >
0.0 3.136701556495612e-48  0.
9.416605217196864e-49 -2.194628592795555e-48  0.
1.0155736887615666e-48 2.2684108279685796e-48  0.
-8.629323524264966e-49 -4.1452627159791363e-48  0.
-1.4055349347616919e-47 -9.040025048946992e-48  0.
-9.681836327420376e-47 -7.370022013918823e-47  0.
-4.1855374129197146e-46 -2.4795230946780695e-46  0.
-1.6169096966626064e-45 -9.501925875234804e-46  0.
-5.311906012622586e-45 -2.7443288523742646e-45  0.
-1.5158596322319968e-44 -7.101482738399884e-45  0.
-3.794758943563256e-44 -1.5686212856433427e-44  0.
-8.306334324386946e-44 -2.94283856921485e-44  0.
-1.609869528735619e-43 -4.849384725733121e-44  0.
-2.7577437113301687e-43 -6.62962411237238e-44  0.
-4.199033400455073e-43 -7.783271644065198e-44  0.
-5.6628488090803256e-43 -6.856395758365887e-44  0.
-6.731444730065169e-43 -3.825240231034559e-44  0.
-6.9355166107522215e-43 1.7462375578538438e-44  0.
-5.9774430637747665e-43 8.150416502255121e-44  0.
-3.6484002314610405e-43 1.2432162631696688e-43  0.
-2.098898049401632e-43 2.6478959241778558e-43  0.
0.0 -3.58721553824796e-45  0.
-2.110264149338652e-45 1.4783745821953512e-45  0.
-3.0960011673678104e-45 -2.4652112485049114e-45  0.
-4.196616407702639e-45 1.3640037813522554e-45  0.
-6.696540472772321e-45 -3.8780618113594625e-45  0.
-2.1803608159275336e-44 -1.1311272687762916e-44  0.
-1.2694592411289256e-43 -9.41528991030543e-44  0.
-5.1289787865651165e-43 -2.9299670679421425e-43  0.
-1.9125367452681913e-42 -1.1103409038234689e-42  0.
-6.056959833154928e-42 -3.043919347066354e-42  0.
-1.6526568866033996e-41 -7.448451826894787e-42  0.
-3.945139023300055e-41 -1.5521760730862463e-41  0.
-8.157686876788715e-41 -2.668056575317415e-41  0.
-1.485207927932853e-40 -4.03807718031391e-41  0.
-2.3666470342023975e-40 -4.790250997468114e-41  0.
-3.3177384737432146e-40 -4.736233233327251e-41  0.
-4.058055498278589e-40 -2.6739630481584886e-41  0.
-4.270236905148104e-40 5.250372849129839e-42  0.
-3.737823553249677e-40 5.013579441147866e-41  0.
-2.2957804418038347e-40 7.703252476763447e-41  0.
-1.3319525824584436e-40 1.6835069301461247e-40  0.
0.0 7.782319938564565e-43  0.
-4.9667714580561746e-42 -5.74671123873926e-42  0.
-8.434044656836005e-42 2.271492232838882e-42  0.
-8.072945484749107e-42 -1.90637651610144e-42  0.
-8.410832021702117e-42 1.559254107662347e-42  0.
-1.3916632992233657e-41 -7.093394354338858e-42  0.
-4.682835813214212e-41 -2.602930336039696e-41  0.
-2.860813906421311e-40 -2.1399671100357485e-40  0.
-1.097702998454548e-39 -6.00436780081183e-40  0.
-3.932782426439239e-39 -2.2428968080432232e-39  0.
-1.1887147051484292e-38 -5.732486380099501e-39  0.
-3.08315714838538e-38 -1.325821030016255e-38  0.
-7.011554100238477e-38 -2.610780007728269e-38  0.
-1.3700327083341375e-37 -4.0919946916573595e-38  0.
-2.346995838473788e-37 -5.694413180415493e-38  0.
-3.471862745331051e-37 -5.574242608799025e-38  0.
-4.44905777940051e-37 -4.2083721842901206e-38  0.
-4.842563638567961e-37 2.3647266600232706e-39  0.
-4.3351265843146316e-37 5.100700147563802e-38  0.
-2.706052928541652e-37 9.12429602313063e-38  0.
-1.5617819814745894e-37 1.985358425289136e-37  0.
0.0 -8.35674013869383e-39  0.
-8.241896643891478e-39 1.1667371021940146e-40  0.
-1.2132231420756477e-38 -4.04094218890017e-39  0.
-1.2423807985365362e-38 3.776150498826245e-39  0.
-8.304108517298401e-39 3.2718973524465872e-40  0.
-8.976211267184315e-39 -1.004239211479376e-39  0.
-2.4159883628288856e-38 -1.4246226345233017e-38  0.
-9.098401866605361e-38 -5.306044949135636e-38  0.
-5.5607182878924965e-37 -4.136553556746926e-37  0.
-1.9962404751259486e-36 -1.0321087573376196e-36  0.
-6.87986169322004e-36 -3.86769727146585e-36  0.
-1.9702630833904354e-35 -8.993242590957881e-36  0.
-4.881294222136795e-35 -2.0191689204647698e-35  0.
-1.0707625081307305e-34 -3.8217298582997287e-35  0.
-1.997021470166771e-34 -5.459744467253673e-35  0.
-3.248038220079051e-34 -7.069203267294315e-35  0.
-4.448902004493586e-34 -4.964017346667752e-35  0.
-5.1238119290591415e-34 -1.8297734476993543e-35  0.
-4.7724663503738805e-34 5.68122456064528e-35  0.
-3.010118004158591e-34 9.55457872479528e-35  0.
-1.798097662216666e-34 2.2731470882237688e-34  0.
0.0 -5.163693545519378e-36  0.
-9.993999079430476e-36 -4.804256993363603e-36  0.
-1.457144806835081e-35 1.246913124166507e-37  0.
-1.3042199418181127e-35 1.4883259041507301e-36  0.
-8.035008016969104e-36 3.48296723246228e-36  0.
-3.5724833228342905e-36 9.918226949126738e-37  0.
-1.0693718602698732e-35 -8.144018909692888e-36  0.
-4.4670109006921736e-35 -2.597865857551163e-35  0.
-1.6427686648287517e-34 -9.451926661884396e-35  0.
-9.454567262524182e-34 -6.8962482002242115e-34  0.
-3.137954763405131e-33 -1.5128207611599748e-33  0.
-1.0653802871412708e-32 -6.029463015266245e-33  0.
-2.868387812432984e-32 -1.2050155877242872e-32  0.
-6.862517661717083e-32 -2.8037371513137966e-32  0.
-1.4788112266109756e-31 -5.138132342248951e-32  0.
-2.637084150075044e-31 -6.453216634038316e-32  0.
-4.0505224625435346e-31 -7.755358309168928e-32  0.
-5.015566770168139e-31 -1.9124180271541162e-32  0.
-4.916403110457961e-31 3.3626672874451763e-32  0.
-3.1814845590341184e-31 1.103040443360871e-31  0.
-1.8096257048411934e-31 2.342198242862391e-31  0.
0.0 9.476514594773088e-33  0.
-3.717232899352133e-33 -1.3406308985244377e-32  0.
-1.0375230167937498e-32 7.040991982746123e-33  0.
-6.321580467724437e-33 -3.0793387450177107e-33  0.
-5.840275443253126e-33 3.538347619306954e-33  0.
-1.1078588948056137e-33 1.221796588400007e-33  0.
-4.9713880275257045e-34 -6.25965411262213e-34  0.
-2.2000539767105638e-32 -2.0972256966850192e-32  0.
-8.85383222978368e-32 -4.548644314470619e-32  0.
-2.7957918831019197e-31 -1.4823886197128608e-31  0.
-1.5398031987463296e-30 -1.1121533189972227e-30  0.
-4.680962075384494e-30 -2.0491098974195855e-30  0.
-1.587277711636945e-29 -9.152873689846924e-30  0.
-3.908939885170045e-29 -1.422332105643361e-29  0.
-9.234544302920163e-29 -3.9033537417016146e-29  0.
-2.0508592470046546e-28 -7.513581880001319e-29  0.
-3.421396003515513e-28 -6.096733440281242e-29  0.
-4.68172060122149e-28 -6.3777601719811e-29  0.
-4.762340455137693e-28 5.951864294801578e-29  0.
-2.9569783765349638e-28 8.433770572176654e-29  0.
-1.8900725329525445e-28 2.4362134282860774e-28  0.
0.0 -3.9230842217909164e-29  0.
3.4624196249894656e-29 6.658341122439948e-29  0.
3.645400254379969e-29 -5.40549481697795e-29  0.
-8.235385935679162e-30 6.052930257448119e-30  0.
-9.895130051663526e-31 1.0637207063346504e-30  0.
3.2785356502499347e-32 -2.8853838320560193e-32  0.
-1.2279055863641745e-33 -3.9230701949125936e-33  0.
-6.081779622797541e-31 -6.465955265770949e-31  0.
-6.160621432282307e-29 -5.9982034399383e-29  0.
-2.2952891293162484e-28 -1.190936989325073e-28  0.
-5.311506716640693e-28 -1.5923327935530543e-28  0.
-2.349476400476541e-27 -1.7248790155748482e-27  0.
-6.538644124450232e-27 -2.4877476553543446e-27  0.
-2.0748723622117207e-26 -1.199958149443493e-26  0.
-4.6342601235965897e-26 -1.349959278371987e-26  0.
-1.3081625699762792e-25 -7.323107574171334e-26  0.
-4.341961692691192e-25 -1.6329150025910274e-25  0.
-5.311592130158072e-25 7.001663516084464e-26  0.
-4.574270525074436e-25 -3.4046463143127575e-26  0.
-3.471792816764821e-25 9.62838683188249e-26  0.
-2.2445652838970836e-25 2.6863859061114116e-25  0.
0.0 2.1349459921939058e-21  0.
2.408262618255235e-25 2.134440573822921e-21  0.
-7.018795642244822e-27 2.1346200450480513e-21  0.
-5.692634063257297e-28 2.1346142785609973e-21  0.
1.2452969111012405e-29 2.1346136711568235e-21  0.
3.09477082099206e-31 2.134613680601083e-21  0.
-9.325041292767605e-33 2.1346136809331268e-21  0.
-2.306994617295274e-30 2.134613677438566e-21  0.
-5.123920841731996e-28 2.134613058137372e-21  0.
-1.5433283017902658e-25 2.134452890613233e-21  0.
-6.771108770899372e-25 2.1344321790240585e-21  0.
-6.941461641162245e-25 2.134687988376483e-21  0.
-2.474112122654135e-24 2.1329608897308547e-21  0.
-6.555855123389566e-24 2.1327179220814506e-21  0.
-1.9201026944964153e-23 2.1258783965028026e-21  0.
-6.455688675474793e-23 2.1066855709207084e-21  0.
-1.9510959966739157e-22 1.863472430603125e-21  0.
-2.1187281835896443e-22 1.2278374373888886e-21  0.
-2.126157187348242e-22 1.097802749786024e-21  0.
-2.5189641822795043e-22 5.735129924364395e-22  0.
-4.631466424350744e-22 6.839293495000886e-22  0.
0.0 3.162472227427546e-19  0.
-4.010616081559322e-24 3.1670067986785016e-19  0.
-1.7621326084235725e-25 3.1669925403123754e-19  0.
3.1282759885493972e-27 3.166990462998496e-19  0.
8.832893894675274e-29 3.1669904783222833e-19  0.
1.5727164502275976e-30 3.166990479365959e-19  0.
-2.5162875326261363e-32 3.1669904793868324e-19  0.
-2.55484044032439e-29 3.166990479075551e-19  0.
-6.247103276743049e-27 3.166990403872684e-19  0.
-3.498057606867894e-25 3.166983088390594e-19  0.
-1.6770566010839033e-22 3.165664990580732e-19  0.
-1.2390182689779464e-22 3.160349581304795e-19  0.
-3.2393838716239684e-22 3.1532785492594286e-19  0.
-9.546948940860047e-22 3.140128764591838e-19  0.
-2.444537182901564e-21 3.113488816760027e-19  0.
-5.606017520733448e-21 3.0251866258899934e-19  0.
-9.545800767048059e-21 2.87523017443289e-19  0.
-1.4520990097693045e-20 2.641499523201695e-19  0.
-2.0977882747386995e-20 2.2790133644676525e-19  0.
-2.837639346302706e-20 1.8451142331058767e-19  0.
-9.608395164850018e-20 1.8619646867850518e-19  0.
0.0 1.848728627144606e-17  0.
-2.9065936489040684e-23 1.848636614572185e-17  0.
4.221128607324617e-25 1.8486336522359167e-17  0.
1.593509864408489e-26 1.848633662412556e-17  0.
2.9383326358128646e-28 1.8486336644010412e-17  0.
3.3814978774262065e-30 1.8486336644482505e-17  0.
-2.9605793068768673e-31 1.848633664448917e-17  0.
-7.621498581679378e-29 1.8486336644356478e-17  0.
-2.971179527520878e-26 1.8486336598267998e-17  0.
-5.476571833596414e-23 1.8486292179222336e-17  0.
-6.225296387205796e-22 1.848555263399521e-17  0.
-3.4935293258347515e-21 1.8481462773628758e-17  0.
-1.5685535114750356e-20 1.8463221172439268e-17  0.
-4.754697792371744e-20 1.8401804608709768e-17  0.
-1.192200781123239e-19 1.8240939002607996e-17  0.
-2.601635801932541e-19 1.7881744999667754e-17  0.
-4.912202142986421e-19 1.7159211507179577e-17  0.
-8.239071435421e-19 1.5892107173073775e-17  0.
-1.2250309575250132e-18 1.3911932029502757e-17  0.
-1.7399102804732194e-18 1.1218995892907307e-17  0.
-5.954067116108582e-18 1.1462490477195268e-17  0.
0.0 9.049284650905855e-16  0.
7.334744717122722e-23 9.04927011542147e-16  0.
1.828655864457302e-24 9.049269698531753e-16  0.
3.075885837947423e-26 9.049269717773504e-16  0.
3.560129219203875e-28 9.049269718416487e-16  0.
-6.141318000520088e-33 9.049269718427612e-16  0.
-5.189573820991513e-31 9.049269718427689e-16  0.
-3.9755128704440956e-28 9.049269718421691e-16  0.
-1.3767491545049816e-25 9.049269716403324e-16  0.
-8.219110932927675e-23 9.049269767064774e-16  0.
-3.560039480046276e-21 9.04924579943705e-16  0.
-8.157446307135483e-20 9.04848080677915e-16  0.
-4.1882755539042934e-19 9.043863197724872e-16  0.
-1.6126354472033467e-18 9.024774640657044e-16  0.
-4.586702153748432e-18 8.966071131502517e-16  0.
-1.0987611588147773e-17 8.81776687093756e-16  0.
-2.202837640487135e-17 8.502359493105972e-16  0.
-3.875066014855992e-17 7.920398637828951e-16  0.
-5.991421398124168e-17 6.9760726287606e-16  0.
-8.726255385275951e-17 5.651061875024615e-16  0.
-3.012390422122422e-16 5.797250396627733e-16  0.
0.0 3.662146090249979e-14  0.
1.0193707991751044e-22 3.6621464537640123e-14  0.
1.3307050617759743e-24 3.662146473636088e-14  0.
4.187627590783235e-27 3.6621464741450334e-14  0.
1.3391714230191024e-29 3.6621464741548544e-14  0.
4.297066693799099e-29 3.66214647415499e-14  0.
-1.0124112396012756e-30 3.662146474154995e-14  0.
-1.4854608716986475e-27 3.6621464741547484e-14  0.
-4.789539209389513e-25 3.662146474068467e-14  0.
-2.3333825873558916e-22 3.662146442552425e-14  0.
-2.404072971532949e-20 3.6621445801976454e-14  0.
-6.015793555913568e-19 3.6620982628173277e-14  0.
-8.417962147531678e-18 3.661292742984021e-14  0.
-3.901629825818439e-17 3.656943920331554e-14  0.
-1.3927605676400726e-16 3.640321236798105e-14  0.
-3.6524403591697335e-16 3.592909881661001e-14  0.
-8.077718092982394e-16 3.4820644337346194e-14  0.
-1.490666829879221e-15 3.2641399771105774e-14  0.
-2.4172042927630866e-15 2.8936181520175815e-14  0.
-3.617043439787731e-15 2.358205238328354e-14  0.
-1.2634342653375338e-14 2.4305286764733805e-14  0.
0.0 1.2012510651525357e-12  0.
-1.1742735428997225e-22 1.2012510673268628e-12  0.
-3.4046546349918676e-24 1.2012510675300758e-12  0.
4.70000277539657e-27 1.2012510675333336e-12  0.
3.8602764827555216e-27 1.201251067533427e-12  0.
2.385212459126954e-28 1.201251067533432e-12  0.
2.2961989726342253e-28 1.201251067533432e-12  0.
-4.041436984696289e-27 1.2012510675334245e-12  0.
-2.0458217285804375e-24 1.2012510675299013e-12  0.
-1.193394008031204e-21 1.201251066763573e-12  0.
-9.128660105082163e-20 1.2012510170121642e-12  0.
-2.7549558737916686e-18 1.2012492544603444e-12  0.
-5.753430702793284e-17 1.2012060385053811e-12  0.
-6.994236927845994e-16 1.2005400073906248e-12  0.
-2.9321429859500755e-15 1.1972529615515723e-12  0.
-9.599677455410434e-15 1.1856997797627714e-12  0.
-2.2947303211163015e-14 1.1554344898430576e-12  0.
-4.644243752220762e-14 1.0905316657494194e-12  0.
-7.824218050891334e-14 9.73832871241843e-13  0.
-1.2243780775001116e-13 7.992299338584319e-13  0.
-4.30317111399277e-13 8.280491620601637e-13  0.
0.0 3.1164305276251075e-11  0.
-2.6585834347246647e-22 3.116430527355721e-11  0.
1.384334716484756e-25 3.116430527335183e-11  0.
5.919259517312139e-26 3.116430527335256e-11  0.
-3.613132235887307e-27 3.116430527335273e-11  0.
3.276274586196021e-27 3.116430527335273e-11  0.
9.383564049034973e-28 3.116430527335273e-11  0.
-7.278647547319996e-27 3.116430527335271e-11  0.
-4.153257090812262e-24 3.1164305273341674e-11  0.
-4.084219304166006e-21 3.1164305270866834e-11  0.
-2.59588175336358e-19 3.116430514884614e-11  0.
-9.25959050483291e-18 3.1164300242851736e-11  0.
-2.451431986458601e-16 3.116414934580959e-11  0.
-4.4331505953057504e-15 3.1160894033847854e-11  0.
-4.6055410967296264e-14 3.111732407179713e-11  0.
-1.726939421205492e-13 3.092265973609818e-11  0.
-5.124370945426145e-13 3.030034814269958e-11  0.
-1.1030439713504278e-12 2.881947380005143e-11  0.
-2.023366479835972e-12 2.594643870922312e-11  0.
-3.2688166657332752e-12 2.14662224371256e-11  0.
-1.1667112588571864e-11 2.2402362227580048e-11  0.
0.0 6.198437212578517e-10  0.
3.035542979029392e-22 6.198437212511153e-10  0.
-1.1569749485248024e-23 6.198437212507517e-10  0.
-5.2461539642719275e-25 6.198437212507384e-10  0.
2.5776699104084234e-25 6.198437212507374e-10  0.
1.0001939839351197e-25 6.198437212507375e-10  0.
9.699440772267835e-26 6.198437212507376e-10  0.
8.764574942344768e-26 6.198437212507378e-10  0.
-4.814710310419302e-24 6.198437212507158e-10  0.
-1.0939628739734922e-20 6.198437212463672e-10  0.
-6.159006763815713e-19 6.198437210089683e-10  0.
-2.4587272972146416e-17 6.19843710233335e-10  0.
-7.639025306149265e-16 6.19843327040498e-10  0.
-1.744270186041535e-14 6.198330539849459e-10  0.
-2.684969689779651e-13 6.196411717080328e-10  0.
-2.3299371300367666e-12 6.174561411862254e-10  0.
-7.711913025186235e-12 6.087218700222603e-10  0.
-2.0411373563488637e-11 5.837033690579881e-10  0.
-3.907802552427605e-11 5.305240220723249e-10  0.
-6.842218793727243e-11 4.431057029774252e-10  0.
-2.427543864302714e-10 4.660442908003925e-10  0.
0.0 9.07634633282195e-09  0.
-6.828776757079101e-22 9.076346332823686e-09  0.
1.0770412816784567e-23 9.076346332823724e-09  0.
4.63891847675756e-24 9.076346332823679e-09  0.
-1.557216579666505e-24 9.076346332823686e-09  0.
1.3218402018541129e-25 9.076346332823686e-09  0.
-1.2557356097825375e-25 9.076346332823686e-09  0.
-3.9202747529421497e-26 9.076346332823684e-09  0.
-1.2177367595055101e-23 9.07634633282364e-09  0.
-2.1035580637756615e-20 9.076346332817818e-09  0.
-1.2373338282864646e-18 9.07634633242381e-09  0.
-5.388497174151161e-17 9.076346313272718e-09  0.
-1.87318423825823e-15 9.076345557837137e-09  0.
-4.996939571703121e-14 9.076322193528653e-09  0.
-9.658589840087347e-13 9.075784156074703e-09  0.
-1.2367007340771394e-11 9.067234323014672e-09  0.
-8.702910173555018e-11 8.986613853750574e-09  0.
-2.501442568732143e-10 8.702746376311966e-09  0.
-5.795693866905394e-10 7.991971216577213e-09  0.
-1.0462201457085102e-09 6.748546478683572e-09  0.
-3.775282683397839e-09 7.186644551221414e-09  0.
0.0 9.268864154907498e-08  0.
3.688981042750207e-23 9.26886415490786e-08  0.
-7.957957915628406e-23 9.268864154907986e-08  0.
-6.505627781008208e-23 9.268864154908012e-08  0.
1.116144460681252e-23 9.268864154908003e-08  0.
9.142619546957426e-24 9.268864154908003e-08  0.
8.762274680118347e-24 9.268864154908003e-08  0.
8.552656351730851e-24 9.268864154908004e-08  0.
-6.097900460011836e-24 9.268864154907999e-08  0.
-3.792340388311389e-20 9.268864154906887e-08  0.
-2.1547983395630155e-18 9.268864154852849e-08  0.
-9.998150124174566e-17 9.268864152064618e-08  0.
-3.7689864405533966e-15 9.268864033367152e-08  0.
-1.118891920755419e-13 9.268859986538608e-08  0.
-2.5131622675337025e-12 9.268752825745107e-08  0.
-4.0151319649117814e-11 9.2666739516196e-08  0.
-4.147274356468522e-10 9.239184175986871e-08  0.
-2.2764685602224556e-09 9.032387903972187e-08  0.
-5.59800797108852e-09 8.408383795995404e-08  0.
-1.1976832845274341e-08 7.190448558884917e-08  0.
-4.0875706260844134e-08 7.743859874649472e-08  0.
0.0 6.130883012374071e-07  0.
1.0726246946442708e-21 6.130883012374107e-07  0.
-6.978267794194248e-22 6.13088301237408e-07  0.
2.776047510702451e-22 6.130883012374075e-07  0.
2.1386332430744046e-22 6.130883012374074e-07  0.
2.7853006857114627e-22 6.130883012374074e-07  0.
2.5061341312986067e-22 6.130883012374077e-07  0.
1.2192399388258842e-22 6.130883012374075e-07  0.
1.255515259571345e-22 6.130883012374071e-07  0.
-5.564565832282759e-20 6.130883012373996e-07  0.
-3.28499521782007e-18 6.130883012367865e-07  0.
-1.597150593693016e-16 6.130883012037396e-07  0.
-6.375326566207644e-15 6.130882997213644e-07  0.
-2.0386964332627955e-13 6.130882454900964e-07  0.
-5.0599394065294976e-12 6.130866753916165e-07  0.
-9.327965556025973e-11 6.130517377095425e-07  0.
-1.193789824746134e-09 6.12494272788184e-07  0.
-9.543453309112677e-09 6.065402213293933e-07  0.
-3.912499986231517e-08 5.729785378548788e-07  0.
-8.877216654727671e-08 4.984385181676907e-07  0.
-2.977483761367504e-07 5.454050209996883e-07  0.
0.0 2.3870187352841402e-06  0.
1.6400352632906545e-21 2.3870187352841305e-06  0.
-1.728933575438339e-21 2.387018735284134e-06  0.
-2.2905113846699125e-24 2.387018735284133e-06  0.
-3.2543620109661766e-22 2.3870187352841326e-06  0.
-2.2696678920051295e-22 2.3870187352841335e-06  0.
-8.520237386770561e-23 2.3870187352841335e-06  0.
-4.827191016191162e-22 2.3870187352841335e-06  0.
-6.007931220680155e-22 2.3870187352841335e-06  0.
-7.263484740609118e-20 2.3870187352841254e-06  0.
-4.420660921591812e-18 2.38701873528358e-06  0.
-2.2174340816706493e-16 2.387018735253218e-06  0.
-9.196682289206817e-15 2.3870187338407533e-06  0.
-3.088618503615768e-13 2.3870186798468727e-06  0.
-8.18044690653086e-12 2.3870170132164148e-06  0.
-1.650269588186143e-10 2.3869768934531725e-06  0.
-2.4138690109373503e-09 2.3862432309343544e-06  0.
-2.3777912142120907e-08 2.37692327359274e-06  0.
-1.404822308084102e-07 2.301541771759089e-06  0.
-4.445066244093269e-07 2.05447017623098e-06  0.
-1.2620587049265485e-06 2.237436440476058e-06  0.
0.0 5.130795420967529e-06  0.
1.5236066376798694e-21 5.130795420967534e-06  0.
-1.0212971085079379e-21 5.130795420967531e-06  0.
4.1827441603674105e-22 5.130795420967532e-06  0.
2.8550681893365414e-23 5.130795420967532e-06  0.
-7.259477799471667e-23 5.130795420967531e-06  0.
-7.111804329380756e-22 5.130795420967531e-06  0.
5.492268451425913e-22 5.130795420967532e-06  0.
-1.0814651508584213e-21 5.13079542096753e-06  0.
-8.474075133478938e-20 5.130795420967527e-06  0.
-5.271641061604324e-18 5.130795420967202e-06  0.
-2.691119449008616e-16 5.130795420948951e-06  0.
-1.1410239799573898e-14 5.130795420082595e-06  0.
-3.9405238229551134e-13 5.13079538599733e-06  0.
-1.0829566996173671e-11 5.130794299155927e-06  0.
-2.2985063741286212e-10 5.130766649131901e-06  0.
-3.6267095990270334e-09 5.130228849449706e-06  0.
-4.0292364039252094e-08 5.122455032255424e-06  0.
-2.9294363824000206e-07 5.05095531719079e-06  0.
-1.2368335023319322e-06 4.738307041883849e-06  0.
-2.795014586797535e-06 4.982176424104073e-06  0.
0.0 7.449999999999993e-06  0.
-1.632729283240016e-21 7.449999999999993e-06  0.
1.592045636312493e-22 7.449999999999993e-06  0.
1.1467299938748286e-21 7.449999999999993e-06  0.
-8.833921082968878e-22 7.449999999999993e-06  0.
-3.773208822885781e-22 7.449999999999993e-06  0.
-1.0904741162341755e-21 7.449999999999993e-06  0.
6.876214630371086e-22 7.449999999999993e-06  0.
1.125929601653872e-22 7.449999999999993e-06  0.
-9.018179980557752e-20 7.449999999999993e-06  0.
-5.5906659595319065e-18 7.449999999999993e-06  0.
-2.8688479845954596e-16 7.449999999999993e-06  0.
-1.2251592619498118e-14 7.449999999999993e-06  0.
-4.2702134185541995e-13 7.449999999999993e-06  0.
-1.1875860325156558e-11 7.449999999999993e-06  0.
-2.5637944812595545e-10 7.449999999999993e-06  0.
-4.144764479206604e-09 7.449999999999993e-06  0.
-4.803856166217406e-08 7.449999999999993e-06  0.
-3.7306423233685217e-07 7.449999999999993e-06  0.
-1.7397457094540484e-06 7.449999999999993e-06  0.
-3.5878681195079073e-06 7.449999999999993e-06  0.
</DataArray>
<DataArray type="Float64" Name="sigma_xx" NumberOfComponents="1" format="ascii" >
0.0 
0.0 
0.0 
0.0 
0.0 
0.0 
0.0 
0.0 
0.0 
0.0 
0.0 
0.0 
0.0 
0.0 
0.0 
0.0 
0.0 
0.0 
0.0 
0.0 
0.0 
0.0 
0.0 
0.0 
0.0 
0.0 
0.0 
0.0 
0.0 
0.0 
0.0 
0.0 
0.0 
0.0 
0.0 
0.0 
0.0 
0.0 
0.0 
0.0 
0.0 
0.0 
0.0 
0.0 
0.0 
0.0 
0.0 
0.0 
0.0 
0.0 
0.0 
0.0 
0.0 
0.0 
0.0 
0.0 
0.0 
0.0 
0.0 
0.0 
0.0 
0.0 
0.0 
0.0 
0.0 
0.0 
0.0 
0.0 
0.0 
0.0 
0.0 
0.0 
0.0 
0.0 
0.0 
0.0 
0.0 
0.0 
0.0 
0.0 
0.0 
0.0 
0.0 
0.0 
0.0 
0.0 
0.0 
0.0 
0.0 
0.0 
0.0 
0.0 
0.0 
0.0 
0.0 
0.0 
0.0 
0.0 
0.0 
0.0 
0.0 
0.0 
0.0 
0.0 
0.0 
0.0 
0.0 
0.0 
0.0 
0.0 
0.0 
0.0 
0.0 
0.0 
0.0 
0.0 
0.0 
0.0 
0.0 
0.0 
0.0 
0.0 
0.0 
0.0 
0.0 
0.0 
0.0 
0.0 
0.0 
0.0 
0.0 
0.0 
0.0 
0.0 
0.0 
0.0 
0.0 
0.0 
0.0 
0.0 
0.0 
0.0 
0.0 
0.0 
0.0 
0.0 
0.0 
9.325873406851312e-07 
9.325873406851312e-07 
9.325873406851312e-07 
9.325873406851312e-07 
9.325873406851312e-07 
9.325873406851312e-07 
9.325873406851312e-07 
9.325873406851312e-07 
9.325873406851312e-07 
9.325873406851312e-07 
9.325873406851312e-07 
9.325873406851312e-07 
9.325873406851312e-07 
9.325873406851312e-07 
9.325873406851312e-07 
9.325873406851312e-07 
9.325873406851312e-07 
8.548717289613702e-07 
6.217248937900875e-07 
3.164135620181695e-07 
1.6653345369377343e-07 
5.19140286314723e-05 
5.19140286314723e-05 
5.19140286314723e-05 
5.19140286314723e-05 
5.19140286314723e-05 
5.19140286314723e-05 
5.19140286314723e-05 
5.19140286314723e-05 
5.19140286314723e-05 
5.19140286314723e-05 
5.19140286314723e-05 
5.19140286314723e-05 
5.17641485231479e-05 
5.1458837191375985e-05 
5.092593013955592e-05 
4.95437024738976e-05 
4.7073456244106624e-05 
4.320432900328795e-05 
3.71647157493271e-05 
2.683409050519002e-05 
2.0139445666700326e-05 
0.0025329072173008163 
0.0025329072173008163 
0.0025329072173008163 
0.0025329072173008163 
0.0025329072173008163 
0.0025329072173008163 
0.0025329072173008163 
0.0025329072173008163 
0.0025329072173008163 
0.0025329072173008163 
0.002532757337192492 
0.0025319413232693924 
0.0025284108140510844 
0.002517802633050791 
0.002490840866897769 
0.0024327762027098734 
0.002323491399280896 
0.002140565502628532 
0.0018605672558180677 
0.0013581635815995692 
0.0010232703573365138 
0.10248824011682697 
0.10248824011682697 
0.10248824011682697 
0.10248824011682697 
0.10248824011682697 
0.10248824011682697 
0.10248824011682697 
0.10248824011682697 
0.10248824011682697 
0.10248824011682697 
0.10248691340031255 
0.10246950510328642 
0.10238568881604235 
0.10207605316558951 
0.10121387061801099 
0.09919267629499015 
0.0951641432322958 
0.08809192264536134 
0.07693720660562062 
0.05633420396833341 
0.042441317127384054 
3.360969236254617 
3.360969236254617 
3.360969236254617 
3.360969236254617 
3.360969236254617 
3.360969236254617 
3.360969236254617 
3.360969236254617 
3.360969236254617 
3.3609690863745088 
3.3609627192454625 
3.360838302102208 
3.3594018955529483 
3.353070376910238 
3.33158705068115 
3.276623322667759 
3.157750316784557 
2.938921783712799 
2.5798867819837303 
1.893978124334338 
1.4286552274533895 
87.15751718124662 
87.15751718124662 
87.15751718124662 
87.15751718124662 
87.15751718124662 
87.15751718124662 
87.15751718124662 
87.15751718124662 
87.15751718124662 
87.15751652066392 
87.15749391652314 
87.15692892957702 
87.14734379688946 
87.05277954601517 
86.67872643530747 
85.52473453882212 
82.83652593865651 
77.51962155522205 
68.42927946504315 
50.3610425250933 
37.88899094470109 
1732.1998892372285 
1732.1998892372285 
1732.1998892372285 
1732.1998892372285 
1732.1998892372285 
1732.1998892372285 
1732.1998892372285 
1732.1998892372285 
1732.1998892372285 
1732.1998874941783 
1732.1998229458118 
1732.1979284778959 
1732.1573736406299 
1731.5758232827602 
1726.7992343028554 
1710.071773550203 
1663.8395599760652 
1566.86421400598 
1390.6706323563162 
1025.2554957318466 
772.797109405143 
25326.71088237847 
25326.71088237847 
25326.71088237847 
25326.71088237847 
25326.71088237847 
25326.71088237847 
25326.71088237847 
25326.71088237847 
25326.71088237847 
25326.7108785371 
25326.71072552616 
25326.705692257914 
25326.57956776928 
25324.311947083614 
25297.522379535967 
25119.881288482295 
24578.869738225974 
23265.49804133603 
20770.752899257328 
15312.720497628874 
11424.07518764376 
257812.4089976707 
257812.4089976707 
257812.4089976707 
257812.4089976707 
257812.4089976707 
257812.4089976707 
257812.4089976707 
257812.4089976707 
257812.4089975985 
257812.40899043204 
257812.40868261716 
257812.3976419321 
257812.08837216676 
257805.61077945452 
257710.36861521314 
256815.1292060921 
252219.54859248322 
240330.60375508998 
215089.2454756858 
157994.94750033942 
118042.46727282192 
1692011.3328338754 
1692011.3328338754 
1692011.3328338754 
1692011.3328338754 
1692011.3328338754 
1692011.3328338754 
1692011.3328338754 
1692011.3328338754 
1692011.332833659 
1692011.3328219515 
1692011.3322859912 
1692011.3117840022 
1692010.6892829463 
1691996.1957954331 
1691749.4792688054 
1688889.8978778261 
1668551.603748155 
1592241.7539061976 
1425076.0736702888 
1029213.3726259279 
741918.0402768617 
6433693.6684319815 
6433693.6684319815 
6433693.6684319815 
6433693.6684319815 
6433693.6684319815 
6433693.6684319815 
6433693.6684319815 
6433693.6684319815 
6433693.668431693 
6433693.668414513 
6433693.667596771 
6433693.6348548345 
6433692.5822701985 
6433666.198140134 
6433170.64186644 
6426575.558375925 
6369411.448450632 
6083751.322043855 
5336310.491028832 
3673335.6176546807 
2523180.6681107287 
12679470.32636429 
12679470.326364292 
12679470.326364292 
12679470.326364292 
12679470.326364292 
12679470.326364292 
12679470.326364292 
12679470.326364292 
12679470.326364001 
12679470.326341713 
12679470.325241555 
12679470.279819928 
12679468.762681179 
12679428.832458984 
12678628.983060881 
12667000.484761313 
12552501.75750471 
11864826.524530895 
9676849.033048049 
5708494.8227860145 
3344074.4919612324 
14212487.198268881 
14212487.198268881 
14212487.19826892 
14212487.19826892 
14212487.19826892 
14212487.198268957 
14212487.198268957 
14212487.198268957 
14212487.198268708 
14212487.198242985 
14212487.196931368 
14212487.141805638 
14212485.259496573 
14212434.316153262 
14211375.63440248 
14195191.39040552 
14023739.118101114 
12876395.45107402 
8722310.056926813 
2722446.6170648215 
-114397.5004926601 
13017666.417905932 
13017666.417905932 
13017666.417906009 
13017666.417906009 
13017666.417906009 
13017666.417906087 
13017666.417906087 
13017666.417906087 
13017666.417905876 
13017666.417878944 
13017666.41648859 
13017666.35771104 
13017664.336261343 
13017609.12275337 
13016448.026993612 
12998399.08182748 
12802643.904101398 
11443271.595830124 
6304677.359880453 
-396534.00052191084 
-3139709.3543983586 
</DataArray>
<DataArray type="Float64" Name="sigma_yy" NumberOfComponents="1" format="ascii" >
0.0 
0.0 
0.0 
0.0 
0.0 
0.0 
0.0 
0.0 
0.0 
0.0 
0.0 
0.0 
0.0 
0.0 
0.0 
0.0 
0.0 
0.0 
0.0 
0.0 
0.0 
0.0 
0.0 
0.0 
0.0 
0.0 
0.0 
0.0 
0.0 
0.0 
0.0 
0.0 
0.0 
0.0 
0.0 
0.0 
0.0 
0.0 
0.0 
0.0 
0.0 
0.0 
0.0 
0.0 
0.0 
0.0 
0.0 
0.0 
0.0 
0.0 
0.0 
0.0 
0.0 
0.0 
0.0 
0.0 
0.0 
0.0 
0.0 
0.0 
0.0 
0.0 
0.0 
0.0 
0.0 
0.0 
0.0 
0.0 
0.0 
0.0 
0.0 
0.0 
0.0 
0.0 
0.0 
0.0 
0.0 
0.0 
0.0 
0.0 
0.0 
0.0 
0.0 
0.0 
0.0 
0.0 
0.0 
0.0 
0.0 
0.0 
0.0 
0.0 
0.0 
0.0 
0.0 
0.0 
0.0 
0.0 
0.0 
0.0 
0.0 
0.0 
0.0 
0.0 
0.0 
0.0 
0.0 
0.0 
0.0 
0.0 
0.0 
0.0 
0.0 
0.0 
0.0 
0.0 
0.0 
0.0 
0.0 
0.0 
0.0 
0.0 
0.0 
0.0 
0.0 
0.0 
0.0 
0.0 
0.0 
0.0 
0.0 
0.0 
0.0 
0.0 
0.0 
0.0 
0.0 
0.0 
0.0 
0.0 
0.0 
0.0 
0.0 
0.0 
0.0 
0.0 
0.0 
1.7319479184152438e-06 
1.7319479184152438e-06 
1.7319479184152438e-06 
1.7319479184152438e-06 
1.7319479184152438e-06 
1.7319479184152438e-06 
1.7319479184152438e-06 
1.7319479184152438e-06 
1.7319479184152438e-06 
1.7319479184152438e-06 
1.7319479184152438e-06 
1.7319479184152438e-06 
1.7319479184152438e-06 
1.7319479184152438e-06 
1.7319479184152438e-06 
1.7319479184152438e-06 
1.7319479184152438e-06 
1.5876189252139734e-06 
1.1546319456101626e-06 
6.827871601444712e-07 
4.996003610813203e-07 
9.641176745844858e-05 
9.641176745844858e-05 