<?xml version="1.0"?>
<VTKFile type="UnstructuredGrid" version="0.1" byte_order="LittleEndian" compressor="vtkZLibDataCompressor">
<UnstructuredGrid>
<Piece NumberOfPoints="441" NumberOfCells="400">
<PointData>
<DataArray type="Float64" Name="displacement" NumberOfComponents="3" format="ascii" >
0.0 9.475935058977563e-09  0.
-9.103157584076865e-15 9.475928761212276e-09  0.
-3.334857482200707e-14 9.4758992016868e-09  0.
-1.0542023618402282e-13 9.475801785649137e-09  0.
-3.049545410064457e-13 9.475511484373468e-09  0.
-8.135550071193502e-13 9.47471479983791e-09  0.
-2.010503712550948e-12 9.472691048200932e-09  0.
-4.620501282207914e-12 9.467913704420668e-09  0.
-9.910295635369878e-12 9.457395616388189e-09  0.
-1.9902015139728396e-11 9.435727145769008e-09  0.
-3.753024251495878e-11 9.393833771199106e-09  0.
-6.663006433478166e-11 9.317618025691079e-09  0.
-1.1162824501353166e-10 9.186831199349976e-09  0.
-1.7684443538845776e-10 8.974687501171093e-09  0.
-2.6540983626052617e-10 8.648800848635328e-09  0.
-3.779661617593175e-10 8.173904176738336e-09  0.
-5.114943744286711e-10 7.516480441524091e-09  0.
-6.58954528272365e-10 6.651250030248892e-09  0.
-8.120657378421854e-10 5.576506928681665e-09  0.
-1.0104712197006392e-09 4.4162161383684715e-09  0.
-1.928835562097939e-09 4.5301802910054285e-09  0.
0.0 2.2782069607459522e-08  0.
-1.8368710356909268e-14 2.2782058613317638e-08  0.
-6.915419391292557e-14 2.2782005437954928e-08  0.
-2.2489082196945554e-13 2.2781823485369908e-08  0.
-6.678154540991351e-13 2.2781261718528392e-08  0.
-1.8242729417296886e-12 2.2779670211385572e-08  0.
-4.604880583078343e-12 2.2775511493998983e-08  0.
-1.0784492089676205e-11 2.2765445717511487e-08  0.
-2.3520514023562375e-11 2.2742791177018865e-08  0.
-4.7932694688037105e-11 2.269521143160432e-08  0.
-9.155626923541443e-11 2.260166126045796e-08  0.
-1.6436888219474456e-10 2.2428963883180482e-08  0.
-2.7804056263959813e-10 2.212885202786489e-08  0.
-4.441426791287757e-10 2.1636746787972406e-08  0.
-6.713121057735914e-10 2.087375151725639e-08  0.
-9.617884146199452e-10 1.9753076930013108e-08  0.
-1.3082945912402194e-09 1.8191368495140652e-08  0.
-1.6940379006344449e-09 1.6125779988190376e-08  0.
-2.1159026884309863e-09 1.3556794808255882e-08  0.
-2.820445138878203e-09 1.0881868089455114e-08  0.
-6.340181661640061e-09 1.1720888974713119e-08  0.
0.0 8.825588089856582e-08  0.
-6.292897222908488e-14 8.825584697171403e-08  0.
-2.44010963259539e-13 8.825567900265453e-08  0.
-8.176940782413961e-13 8.825508745663142e-08  0.
-2.4951112005751415e-12 8.825321130051715e-08  0.
-6.982202651258037e-12 8.824776758071055e-08  0.
-1.8001335358169526e-11 8.823324235284882e-08  0.
-4.294117072128737e-11 8.819744363222178e-08  0.
-9.515145008758059e-11 8.811561393512366e-08  0.
-1.9656361031340397e-10 8.79414758834498e-08  0.
-3.798159605764061e-10 8.759528412896353e-08  0.
-6.885389424683128e-10 8.695030494747606e-08  0.
-1.1742183757307181e-09 8.582097494262759e-08  0.
-1.8884157888016887e-09 8.39577511979574e-08  0.
-2.870317225258334e-09 8.105445729297723e-08  0.
-4.131436178433281e-09 7.67729060385479e-08  0.
-5.641863259029976e-09 7.078691693344529e-08  0.
-7.3311279160557815e-09 6.285169221609651e-08  0.
-9.19708805748994e-09 5.3000644328604677e-08  0.
-1.2353032125029324e-08 4.2920843446431975e-08  0.
-2.748637209328613e-08 4.722933988129583e-08  0.
0.0 3.058086742124184e-07  0.
-1.956869777979354e-13 3.0580857530846666e-07  0.
-7.794988072794888e-13 3.058080746715706e-07  0.
-2.683421039104975e-12 3.0580626373743917e-07  0.
-8.38686127742571e-12 3.0580037841810276e-07  0.
-2.39612967474647e-11 3.05782939754652e-07  0.
-6.287521421213863e-11 3.057355814435245e-07  0.
-1.5221226550014692e-10 3.05617160553354e-07  0.
-3.413872102846531e-10 3.0534331472446496e-07  0.
-7.121398265911153e-10 3.0475528676665697e-07  0.
-1.3866268056513972e-09 3.0357839915798846e-07  0.
-2.528451212764632e-09 3.0137539090333154e-07  0.
-4.3306297508826144e-09 2.9750623735628146e-07  0.
-6.986114074072799e-09 2.911119005626715e-07  0.
-1.0641133785873342e-08 2.81141582651822e-07  0.
-1.5338842777481684e-08 2.664387919305e-07  0.
-2.0970955754311104e-08 2.458935109483688e-07  0.
-2.7296112667419297e-08 2.1869656251222172e-07  0.
-3.4431729313328025e-08 1.851632968531314e-07  0.
-4.6930437732653404e-08 1.5222572594992758e-07  0.
-1.0016969960869816e-07 1.7040593013857195e-07  0.
0.0 9.019633432330738e-07  0.
-5.590406988482501e-13 9.019630783604588e-07  0.
-2.28306024436764e-12 9.019617099483241e-07  0.
-8.05373305099868e-12 9.019566393383262e-07  0.
-2.571032772719437e-11 9.019398061934708e-07  0.
-7.476079319374834e-11 9.018890497447618e-07  0.
-1.9897117815506688e-10 9.017493201442106e-07  0.
-4.869609846590799e-10 9.0139642579343e-07  0.
-1.1008634358943842e-09 9.005749876770775e-07  0.
-2.308548871270906e-09 8.98804928454847e-07  0.
-4.508285788944112e-09 8.952595044112199e-07  0.
-8.22862034268041e-09 8.886330838459623e-07  0.
-1.4084594157396653e-08 8.770354295730828e-07  0.
-2.267865380278119e-08 8.579635923190467e-07  0.
-3.4451053432840244e-08 8.284034235876233e-07  0.
-4.9508493535974e-08 7.850949971953077e-07  0.
-6.749510091234747e-08 7.24979209147961e-07  0.
-8.774147324102657e-08 6.460062665895328e-07  0.
-1.1122433757817248e-07 5.501892890039357e-07  0.
-1.5389505158114329e-07 4.622104047142595e-07  0.
-3.1249695543355587e-07 5.282004245743327e-07  0.
0.0 2.2238829424253598e-06  0.
-1.472669772395686e-12 2.2238822912985794e-06  0.
-6.153113765028185e-12 2.223878863861536e-06  0.
-2.218641642447585e-11 2.2238658871519645e-06  0.
-7.213880375251337e-11 2.2238220134324644e-06  0.
-2.1280987779351983e-10 2.2236878619489055e-06  0.
-5.723415190698003e-10 2.223315017893175e-06  0.
-1.4101754310631023e-09 2.222368504660816e-06  0.
-3.1982712417093593e-09 2.2201629996852387e-06  0.
-6.707422244026912e-09 2.2154237702199952e-06  0.
-1.3063530244082266e-08 2.205990396326329e-06  0.
-2.3723729025782344e-08 2.188523173447266e-06  0.
-4.032560620118412e-08 2.1583143769303448e-06  0.
-6.439112924991387e-08 2.1093269334010613e-06  0.
-9.692284405321576e-08 2.034557715361263e-06  0.
-1.3799168187702693e-07 1.926756843894196e-06  0.
-1.8653076296960428e-07 1.7795272193382074e-06  0.
-2.4116378778447347e-07 1.5895756959329232e-06  0.
-3.069514575829819e-07 1.3665731977608938e-06  0.
-4.3131473989650634e-07 1.1856255106187236e-06  0.
-8.247269580745174e-07 1.3886967341691967e-06  0.
0.0 4.506059823584347e-06  0.
-3.581650720972608e-12 4.506058355574044e-06  0.
-1.5278331606649677e-11 4.50605049568049e-06  0.
-5.617058128627659e-11 4.506020164006193e-06  0.
-1.855095913498574e-10 4.505916020285701e-06  0.
-5.534336444129904e-10 4.505594193239318e-06  0.
-1.498526534582523e-09 4.504694860641696e-06  0.
-3.701048711690153e-09 4.502411139931097e-06  0.
-8.379551943138719e-09 4.497115034003947e-06  0.
-1.7477073039087194e-08 4.485843126786304e-06  0.
-3.3736481255773155e-08 4.463721053630921e-06  0.
-6.054277532940129e-08 4.4235018136322455e-06  0.
-1.014460194918157e-07 4.355462509498836e-06  0.
-1.5938845775058185e-07 4.247881550142559e-06  0.
-2.3580580744881926e-07 4.088177462743297e-06  0.
-3.2992825826808526e-07 3.864590562572783e-06  0.
-4.3890218482530526e-07 3.568465188035734e-06  0.
-5.613136544561193e-07 3.19995740260607e-06  0.
-7.167991015290333e-07 2.7955254258293583e-06  0.
-1.022041640640327e-06 2.5462722866219294e-06  0.
-1.8178530891824363e-06 3.0651662775791277e-06  0.
0.0 7.432928950481211e-06  0.
-8.054354369770309e-12 7.432925913519274e-06  0.
-3.500436105143015e-11 7.432909402203872e-06  0.
-1.3090755006439295e-10 7.432844608318367e-06  0.
-4.3798753218600997e-10 7.4326192812651964e-06  0.
-1.3173990796056185e-09 7.431917784516251e-06  0.
-3.5783440863211776e-09 7.429954461537374e-06  0.
-8.821196022816766e-09 7.424991475073035e-06  0.
-1.9838551994614008e-08 7.4136034788506555e-06  0.
-4.09147389393008e-08 7.3897642619771455e-06  0.
-7.777339738731476e-08 7.344011662046518e-06  0.
-1.3693370470473569e-07 7.263119727280205e-06  0.
-2.2440269799167712e-07 7.130741142501711e-06  0.
-3.439621986227987e-07 6.929257956323721e-06  0.
-4.956228990589441e-07 6.642622094665041e-06  0.
-6.751152561149726e-07 6.259607832230685e-06  0.
-8.760562465887329e-07 5.77800485898583e-06  0.
-1.1016238355174723e-06 5.218616781030979e-06  0.
-1.411069481585321e-06 4.690329617230829e-06  0.
-2.0332569599489936e-06 4.587236768342898e-06  0.
-3.319917722525266e-06 5.65818279835043e-06  0.
0.0 1.0150195536620752e-05  0.
-1.6814348591404008e-11 1.0150189739824366e-05  0.
-7.430375975153112e-11 1.0150157788385728e-05  0.
-2.8203940091278275e-10 1.0150030558814484e-05  0.
-9.537045849651966e-10 1.0149583479991278e-05  0.
-2.884165260838231e-09 1.0148185187636727e-05  0.
-7.832197926496564e-09 1.0144279636437385e-05  0.
-1.9192759931798503e-08 1.013449627280832e-05  0.
-4.266751816968687e-08 1.0112410217110388e-05  0.
-8.652492636317308e-08 1.0067249747414713e-05  0.
-1.6093247952633713e-07 9.98318852545375e-06  0.
-2.76031428669987e-07 9.840048266432252e-06  0.
-4.389981220737954e-07 9.61597690165232e-06  0.
-6.510008291087917e-07 9.291937022627592e-06  0.
-9.055813485648094e-07 8.856865819438619e-06  0.
-1.190066355726255e-06 8.312449967161883e-06  0.
-1.4941178593124524e-06 7.680761136742847e-06  0.
-1.839764624570714e-06 7.037922326855034e-06  0.
-2.3663028234070225e-06 6.639721336195915e-06  0.
-3.4092094012190944e-06 7.109853088582321e-06  0.
-5.060649123528608e-06 8.832915898903977e-06  0.
0.0 1.2261686170535901e-05  0.
-3.2779645807398767e-11 1.2261675878906993e-05  0.
-1.4703063192312495e-10 1.226161845169385e-05  0.
-5.653815800057958e-10 1.2261386840503678e-05  0.
-1.928350324380171e-09 1.2260566064256027e-05  0.
-5.849626956569471e-09 1.2257993039723187e-05  0.
-1.583487815898054e-08 1.2250842506643872e-05  0.
-3.843007443641669e-08 1.223316431227029e-05  0.
-8.407282375036663e-08 1.2194106584296168e-05  0.
-1.667553934416894e-07 1.2116609275951611e-05  0.
-3.016728877357935e-07 1.1977813261618763e-05  0.
-5.007942741045226e-07 1.1752288773162313e-05  0.
-7.676568446230985e-07 1.1418125846110984e-05  0.
-1.0937646220582606e-06 1.0964204017840928e-05  0.
-1.4591250665326054e-06 1.0396140845962734e-05  0.
-1.8396572227635201e-06 9.740676224353292e-06  0.
-2.2288036857468017e-06 9.061348480961556e-06  0.
-2.6975006373716023e-06 8.532019974491718e-06  0.
-3.4963143440625926e-06 8.614981063772332e-06  0.
-4.9398730804533715e-06 9.974454674570832e-06  0.
-6.681836023980756e-06 1.2042380048109847e-05  0.
0.0 1.4437251615835458e-05  0.
-5.991792084145254e-11 1.4437234586819541e-05  0.
-2.723705839690766e-10 1.4437138511796604e-05  0.
-1.0593582527691083e-09 1.4436746647608773e-05  0.
-3.6386716083986277e-09 1.4435348306423595e-05  0.
-1.1051909139342461e-08 1.4430962109980676e-05  0.
-2.9752944852761236e-08 1.4418862627583719e-05  0.
-7.129213835573921e-08 1.438944078029199e-05  0.
-1.5288137000280423e-07 1.4326124902060353e-05  0.
-2.9522453127934304e-07 1.4204962397988684e-05  0.
-5.168037187275152e-07 1.3997716459964698e-05  0.
-8.259331067763958e-07 1.3679081995987129e-05  0.
-1.214161373415345e-06 1.323605499670888e-05  0.
-1.6556121684700355e-06 1.2675048738323103e-05  0.
-2.114362862781122e-06 1.2023699868245946e-05  0.
-2.5637003222798082e-06 1.1333452670884355e-05  0.
-3.027299660876701e-06 1.0715778579535094e-05  0.
-3.665993094765884e-06 1.0473603028985392e-05  0.
-4.806512464355435e-06 1.1222866441925284e-05  0.
-6.504461848424825e-06 1.3206072618156726e-05  0.
-8.163981986982705e-06 1.4982223559544649e-05  0.
0.0 1.7059671988676046e-05  0.
-1.0278217305829979e-10 1.7059645838857654e-05  0.
-4.728042051068338e-10 1.705949684153321e-05  0.
-1.8573373294517102e-09 1.7058883070879728e-05  0.
-6.416117461042951e-09 1.7056680351143177e-05  0.
-1.9485313110729377e-08 1.704977604458945e-05  0.
-5.2073474343637916e-08 1.7030905118205325e-05  0.
-1.228823981351173e-07 1.6985901071523427e-05  0.
-2.574598118442664e-07 1.689197245997816e-05  0.
-4.821948218369413e-07 1.671960819953773e-05  0.
-8.135362193421302e-07 1.6439940692141244e-05  0.
-1.2472975398265324e-06 1.6035886722590622e-05  0.
-1.7549999076805564e-06 1.5511154282055872e-05  0.
-2.2923122767550237e-06 1.4890962097850457e-05  0.
-2.8195959917945546e-06 1.4215192066467376e-05  0.
-3.333821705187613e-06 1.354915561612832e-05  0.
-3.932461985989653e-06 1.306571281535444e-05  0.
-4.877978941722728e-06 1.3212813994963967e-05  0.
-6.422987180089435e-06 1.4532147716818243e-05  0.
-8.194220435932213e-06 1.6427647064226555e-05  0.
-9.727958500886681e-06 1.7618022117202648e-05  0.
0.0 1.945164760391893e-05  0.
-1.656971338153328e-10 1.9451610331527766e-05  0.
-7.702020375952077e-10 1.9451396111022754e-05  0.
-3.0516975318924396e-09 1.9450506091435475e-05  0.
-1.0589759189379514e-08 1.9447297460532926e-05  0.
-3.211899446671701e-08 1.943725840010031e-05  0.
-8.508863302731421e-08 1.941010967027033e-05  0.
-1.9734322945781205e-07 1.9346761081554886e-05  0.
-4.028604704003096e-07 1.9219029851636056e-05  0.
-7.295222426947705e-07 1.899545995787096e-05  0.
-1.183028586722336e-06 1.8653339808732438e-05  0.
-1.737905267197665e-06 1.8190694243840123e-05  0.
-2.345336231661588e-06 1.7627869240991905e-05  0.
-2.956350818935416e-06 1.6995758480151627e-05  0.
-3.5552696380482833e-06 1.6328230068850002e-05  0.
-4.1979410573601205e-06 1.5707865063640218e-05  0.
-5.074529691687097e-06 1.5420393334917844e-05  0.
-6.4714410027408115e-06 1.6030665767974758e-05  0.
-8.33676160330827e-06 1.767033442094613e-05  0.
-1.0007815515438348e-05 1.9071778237418364e-05  0.
-1.1383309560379142e-05 2.0165953816595446e-05  0.
0.0 2.1675383996254497e-05  0.
-2.517194928248217e-10 2.1675334608777326e-05  0.
-1.1807006582345913e-09 2.1675048623521853e-05  0.
-4.712651860909064e-09 2.167385177890619e-05  0.
-1.641156638216774e-08 2.1669521748639727e-05  0.
-4.967346037999011e-08 2.1656008767677716e-05  0.
-1.3033354308047244e-07 2.1619881459864413e-05  0.
-2.9668754506024885e-07 2.153752993660429e-05  0.
-5.889386094638496e-07 2.1377615619661577e-05  0.
-1.028911040731835e-06 2.1111891287010466e-05  0.
-1.6020212441486793e-06 2.0729968903601726e-05  0.
-2.25884512057123e-06 2.024580129271235e-05  0.
-2.943812380063499e-06 1.9685200043482385e-05  0.
-3.6315700597607724e-06 1.906501322939723e-05  0.
-4.357221435406548e-06 1.8410989163422946e-05  0.
-5.252443712931518e-06 1.7870658778156548e-05  0.
-6.544215046256761e-06 1.7892875035257283e-05  0.
-8.371746620390064e-06 1.8972693787867845e-05  0.
-1.0257975980922443e-05 2.0551356551983065e-05  0.
-1.1706744992530319e-05 2.1507395457364594e-05  0.
-1.3059032572568576e-05 2.3008233301645747e-05  0.
0.0 2.419852345831483e-05  0.
-3.607305925001993e-10 2.4198463008489456e-05  0.
-1.705211709118317e-09 2.4198110684489248e-05  0.
-6.8486631133420105e-09 2.419662697905166e-05  0.
-2.3916506647947643e-08 2.4191243746161014e-05  0.
-7.220938561545568e-08 2.4174491247637003e-05  0.
-1.8760722072822122e-07 2.4130214065956704e-05  0.
-4.1898931436641165e-07 2.4031658079160563e-05  0.
-8.080213224378056e-07 2.3847680135440342e-05  0.
-1.360825879705105e-06 2.3558443700801087e-05  0.
-2.036791780397644e-06 2.316849665730455e-05  0.
-2.772005591122987e-06 2.2700127661365626e-05  0.
-3.5296739848620863e-06 2.21674919092746e-05  0.
-4.336107475843007e-06 2.1565109742012177e-05  0.
-5.277830267358525e-06 2.0943448097691794e-05  0.
-6.522357168562227e-06 2.0590804021016402e-05  0.
-8.2266890565961e-06 2.104992395526126e-05  0.
-1.02050227606735e-05 2.2399614042458424e-05  0.
-1.1841158598591963e-05 2.346876075710805e-05  0.
-1.3141421819554128e-05 2.4119633349706303e-05  0.
-1.4575009172723211e-05 2.5660494529354002e-05  0.
0.0 2.653000561510405e-05  0.
-4.881024648833976e-10 2.652993767245357e-05  0.
-2.3223334866934946e-09 2.652953952729359e-05  0.
-9.3752631187452e-09 2.652785420634751e-05  0.
-3.280894307037448e-08 2.6521726077682098e-05  0.
-9.879587400002529e-08 2.6502710913297568e-05  0.
-2.542405398172114e-07 2.6453003503141203e-05  0.
-5.573254037406098e-07 2.6344896504636092e-05  0.
-1.0445023136477144e-06 2.6150955795648115e-05  0.
-1.6969024153569035e-06 2.5862977678643566e-05  0.
-2.4502316965154395e-06 2.5497940787434985e-05  0.
-3.2492471518114095e-06 2.5073266482412446e-05  0.
-4.100799566645074e-06 2.4579274871395135e-05  0.
-5.085764786264035e-06 2.400732392430004e-05  0.
-6.305877306036126e-06 2.3485361917272545e-05  0.
-7.866269979009938e-06 2.3440663568556818e-05  0.
-9.76047807496326e-06 2.428234516083301e-05  0.
-1.1513597052469088e-05 2.545446638920853e-05  0.
-1.2904700514350266e-05 2.5922700865832584e-05  0.
-1.4273896900045568e-05 2.660506309347496e-05  0.
-1.551131912259949e-05 2.7545395042521168e-05  0.
0.0 2.8895535198676826e-05  0.
-6.244199826126989e-10 2.8895465788397704e-05  0.
-2.986600752550749e-09 2.8895057264443984e-05  0.
-1.2106827454626296e-08 2.889332090628597e-05  0.
-4.243496998693079e-08 2.888699706730094e-05  0.
-1.274588153676555e-07 2.8867429150764692e-05  0.
-3.2515833843419797e-07 2.88167852998377e-05  0.
-7.006560541549874e-07 2.870897649576772e-05  0.
-1.2783565656594912e-06 2.8522800180056657e-05  0.
-2.0082325100943773e-06 2.826148448268705e-05  0.
-2.8133396405322205e-06 2.794810560820146e-05  0.
-3.677787490548416e-06 2.7584150420145553e-05  0.
-4.659659179744728e-06 2.7137723817949474e-05  0.
-5.852911762045583e-06 2.663356012468633e-05  0.
-7.3219118688982314e-06 2.6299005131579688e-05  0.
-9.02318551951545e-06 2.6566447847410818e-05  0.
-1.079429539360914e-05 2.7476130566357143e-05  0.
-1.2258090052132355e-05 2.8092420765968723e-05  0.
-1.3590290379470239e-05 2.8318616601652114e-05  0.
-1.505693235533648e-05 2.919161997252866e-05  0.
-1.6161063707163063e-05 2.9551396863233708e-05  0.
0.0 3.1325139441279984e-05  0.
-7.556342403027504e-10 3.132507659171363e-05  0.
-3.62892691366092e-09 3.132470540669396e-05  0.
-1.4757323450221134e-08 3.13231226385785e-05  0.
-5.178383297647292e-08 3.131735092792791e-05  0.
-1.5519766806942374e-07 3.129953217833352e-05  0.
-3.9302540738478704e-07 3.125379519521126e-05  0.
-8.345678607979118e-07 3.115818913497436e-05  0.
-1.4875165130714885e-06 3.099855400891807e-05  0.
-2.269748278613184e-06 3.0785729081493655e-05  0.
-3.1071022981517933e-06 3.054170929029001e-05  0.
-4.048778975177593e-06 3.0250445249936543e-05  0.
-5.186949821217971e-06 2.987193527436045e-05  0.
-6.5532374048951105e-06 2.948313795493981e-05  0.
-8.147219952566746e-06 2.936268850632956e-05  0.
-9.811043052062855e-06 2.9769929990649268e-05  0.
-1.1358528813711736e-05 3.0408936275324683e-05  0.
-1.281824969135319e-05 3.061770327527308e-05  0.
-1.4192924189992204e-05 3.0918959748121116e-05  0.
-1.556230009266913e-05 3.1531649924900167e-05  0.
-1.6852631018409824e-05 3.180553579198607e-05  0.
0.0 3.36638344190248e-05  0.
-8.65577371878687e-10 3.366378646421247e-05  0.
-4.1689550775028675e-09 3.366350257508545e-05  0.
-1.6991381345774693e-08 3.3662289389110633e-05  0.
-5.966850433867817e-08 3.365786205916335e-05  0.
-1.7852460549444652e-07 3.364421897093939e-05  0.
-4.495852362385798e-07 3.36094214479748e-05  0.
-9.439799393362482e-07 3.353770006587947e-05  0.
-1.6521077954022393e-06 3.342111305424424e-05  0.
-2.4643808291317343e-06 3.327209881024687e-05  0.
-3.3213083826295233e-06 3.310666628743441e-05  0.
-4.34524135412164e-06 3.2900722713546194e-05  0.
-5.632633535955859e-06 3.262145818765362e-05  0.
-7.088294140176427e-06 3.237390230705949e-05  0.
-8.675839616352282e-06 3.239793214744035e-05  0.
-1.0290060462429039e-05 3.2730432008734016e-05  0.
-1.1752137264714945e-05 3.3029576122958495e-05  0.
-1.327464107344705e-05 3.3170175425056184e-05  0.
-1.4638930672107733e-05 3.349978885461963e-05  0.
-1.593366248712019e-05 3.37297942392995e-05  0.
-1.7162386842665393e-05 3.405186437761501e-05  0.
0.0 3.6076602484637156e-05  0.
-9.389321963630418e-10 3.607657650414158e-05  0.
-4.530077638087774e-09 3.6076422472465165e-05  0.
-1.8487841482372987e-08 3.607576330787016e-05  0.
-6.495194443149692e-08 3.607335653384613e-05  0.
-1.941246035812558e-07 3.606594782866122e-05  0.
-4.871740124607175e-07 3.604712427863273e-05  0.
-1.0156812878829404e-06 3.600866644948963e-05  0.
-1.7570383625369866e-06 3.5947218290733525e-05  0.
-2.5833604033487024e-06 3.58708360127911e-05  0.
-3.4514337105841336e-06 3.578761640893387e-05  0.
-4.540835588503263e-06 3.5680180357971936e-05  0.
-5.9334090147305e-06 3.5531373974875504e-05  0.
-7.406560807147745e-06 3.541650308328901e-05  0.
-8.938076061862497e-06 3.546714400533625e-05  0.
-1.0583794327791754e-05 3.563615850408246e-05  0.
-1.2050024284232612e-05 3.573886442352142e-05  0.
-1.3469920122046112e-05 3.583096468166114e-05  0.
-1.486678876054208e-05 3.601306817181323e-05  0.
-1.613746272967601e-05 3.6176467706098806e-05  0.
-1.7335687700952878e-05 3.631493589212236e-05  0.
0.0 3.8450000000000094e-05  0.
-9.647089550915733e-10 3.8450000000000094e-05  0.
-4.657122388101843e-09 3.8450000000000094e-05  0.
-1.9014762937661206e-08 3.8450000000000094e-05  0.
-6.681268829456068e-08 3.8450000000000094e-05  0.
-1.9961314953703492e-07 3.8450000000000094e-05  0.
-5.003564547139481e-07 3.8450000000000094e-05  0.
-1.040643642041769e-06 3.8450000000000094e-05  0.
-1.7930339492095045e-06 3.8450000000000094e-05  0.
-2.623247644832431e-06 3.8450000000000094e-05  0.
-3.4950541822574263e-06 3.8450000000000094e-05  0.
-4.609609130304796e-06 3.8450000000000094e-05  0.
-6.039635983851974e-06 3.8450000000000094e-05  0.
-7.5096061264027e-06 3.8450000000000094e-05  0.
-9.01425165880076e-06 3.8450000000000094e-05  0.
-1.0691291631224284e-05 3.8450000000000094e-05  0.
-1.2156492771606345e-05 3.8450000000000094e-05  0.
-1.349796929625071e-05 3.8450000000000094e-05  0.
-1.4957421703273949e-05 3.8450000000000094e-05  0.
-1.6175340346504228e-05 3.8450000000000094e-05  0.
-1.751136972919405e-05 3.8450000000000094e-05  0.
</DataArray>
<DataArray type="Float64" Name="sigma_xx" NumberOfComponents="1" format="ascii" >
74515.18896535167 
74515.02567406007 
74514.3137438675 
74512.18859717555 
74506.46048859919 
74492.19457926755 
74459.17589971592 
74387.86190380184 
74243.60103503999 
73969.34709426037 
73477.82756056407 
72645.00257316839 
71307.39157802932 
69266.08343524317 
66299.62816063204 
62186.2400908446 
56731.10629380027 
49765.19899954066 
40818.86959179102 
25456.857815603355 
15160.063856500808 
220596.02570957397 
220595.65190226107 
220593.9898382469 
220588.89818308273 
220574.8217201375 
220538.9340436514 
220454.07870401038 
220267.21481792902 
219882.49421908127 
219139.35401424437 
217788.18358259834 
215468.87598609948 
211700.08446225178 
205888.07935995597 
197362.62990502347 
185442.28491375042 
169517.65501054534 
149061.11722819688 
122778.23878268641 
80786.21223843726 
53652.86721648041 
792618.0109068201 
792616.7821113437 
792611.2259415861 
792593.8476171232 
792544.9067838261 
792418.2331972199 
792115.1601627233 
791441.8813970285 
790047.3889027007 
787344.2121780452 
782422.497060378 
773977.8616922819 
760281.4830329261 
739222.6619487212 
708446.1779190585 
665586.2055335968 
608541.9427742432 
535399.9760785236 
441002.6904847567 
290636.74183808494 
193831.85015272023 
2279505.579102924 
2279501.8989506857 
2279485.0359082343 
2279431.469032866 
2279278.7252389025 
2278880.002768562 
2277921.612250224 
2275790.440785346 
2271386.825741494 
2262896.674069761 
2247563.2923901724 
2221526.416157495 
2179810.0791594377 
2116530.729237281 
2025356.0216347328 
1900170.429413286 
1735694.7872772082 
1526525.6937809577 
1254675.34394828 
815832.1660458236 
532322.8142838308 
5376487.972523568 
5376477.828205352 
5376430.801039745 
5376279.496164222 
5375844.1513766805 
5374702.723623929 
5371959.744792674 
5365888.645872381 
5353455.332619127 
5329790.956032572 
5287754.684570577 
5217778.260827153 
5108175.02344202 
4945999.7013040865 
4718379.313225028 
4413996.693620807 
4023722.845149698 
3535241.376544159 
2894854.6695468803 
1847432.4806348716 
1169535.2216106397 
10110926.277942985 
10110900.466187995 
10110779.607280634 
10110386.825234674 
10109250.386228792 
10106270.281529106 
10099146.95864665 
10083550.34257691 
10052122.340264127 
9993575.703072939 
9892306.432216346 
9728962.293589378 
9482211.237353358 
9131532.873030085 
8660333.40067325 
8058091.078820314 
7318234.140374312 
6417297.154339651 
5219971.450602388 
3237180.164675395 
1955856.180890185 
14623851.773231033 
14623791.052249698 
14623504.34794954 
14622565.60354866 
14619843.555007748 
14612734.459981572 
14595921.010626532 
14559738.779332437 
14488564.09779175 
14360023.173838485 
14146004.054677363 
13816160.711402245 
13343689.336936012 
12711951.218296722 
11919409.47151505 
10979357.961391807 
9905833.67480877 
8653599.061616853 
6939284.165037476 
4090443.0919047114 
2272771.025194862 
15848139.271747049 
15848006.710592452 
15847376.431419734 
15845301.963889051 
15839291.442264441 
15823718.768015694 
15787461.261164244 
15711266.219589317 
15566129.968827521 
15314583.294777172 
14916530.437538955 
14339702.582445258 
13572256.888923857 
12632645.189067965 
11571206.72065603 
10456840.05194173 
9331870.04950221 
8084072.273107744 
6233186.534405594 
3278431.5471796775 
1490378.4600599015 
13553473.81415158 
13553203.704705628 
13551911.893089361 
13547645.365558023 
13535322.931357399 
13503756.572880827 
13431737.247653523 
13284846.895211749 
13016095.16292224 
12573758.679809242 
11917603.911572851 
11039847.11439731 
9982312.07871252 
8839390.043558516 
7739449.164165371 
6797934.52110452 
6017475.475052139 
5099075.811587645 
3420243.033802667 
1217356.4726128406 
135854.75204487512 
12029107.408607593 
12028591.434602031 
12026111.466359675 
12017903.56445795 
11994318.406906156 
11934753.9808362 
11802158.295963662 
11541281.376256924 
11086659.427827038 
10384188.061071742 
9422665.198954606 
8261793.403156978 
7037708.229007861 
5934060.794488562 
5117272.297134917 
4639297.386622876 
4283610.548351344 
3431322.343176957 
1593168.7847767333 
10545.840576317569 
-388976.34867849667 
13466182.43358104 
13465256.953225773 
13460790.26723637 
13445993.661872195 
13403762.477918332 
13298892.946591139 
13072090.84532682 
12644436.29743338 
11941233.854895437 
10934888.026104042 
9688891.306382526 
8372470.117362697 
7220563.590185907 
6442402.885095991 
6107009.197333052 
6018484.19218853 
5595114.712203849 
4041355.9267729186 
1572003.5032562807 
39307.22794772121 
-182125.47386941302 
14074435.398820736 
14072874.47526323 
14065315.290989267 
14040276.616690727 
13969387.5697152 
13796687.581664685 
13435287.200279389 
12786588.494227769 
11790567.404952377 
10491418.794981368 
9073162.386790259 
7818453.518783836 
6986656.375071467 
6661173.331028366 
6647135.397826464 
6414055.965715966 
5183758.316932776 
2638794.2700755307 
233923.5406990297 
-445810.74088329833 
-295797.7502368286 
12952043.951975897 
12949562.527481612 
12937511.872196393 
12897626.381583747 
12785697.532414578 
12518584.526463972 
11979540.293119907 
11064551.811769601 
9767456.394593567 
8253827.319840078 
6843336.085124945 
5861034.597456616 
5435373.966861095 
5370629.967266683 
5168946.732817037 
4168787.1853912673 
1903764.4113653917 
-789133.6171215037 
-1707732.4867265956 
-659143.3865823529 
92821.07159089574 
13320213.599233994 
13316489.967164814 
13298365.263354668 
13238448.723102838 
13071844.28497007 
12682682.786846206 
11927310.8361504 
10722636.916284349 
9165974.108633608 
7576969.2847321145 
6364349.613139522 
5748868.309718949 
5563918.8126762295 
5327192.551913309 
4454026.935054961 
2571722.123062645 
-5583.83415468951 
-1559862.124289434 
-867258.4627854775 
266642.5819019216 
517473.5275628482 
13622160.810816593 
13616880.71445541 
13591132.779378988 
13506142.758095367 
13271962.550666414 
12736569.80380558 
11738550.451399256 
10252039.390114045 
8526750.96197977 
7028678.681499708 
6134106.116852769 
5792790.345884007 
5497270.502119727 
4697845.338661266 
3115396.3257781463 
900569.5904801991 
-880720.582410454 
-892164.9394262255 
154625.82030033926 
11997.832038560417 
-617611.6317306713 
13177409.057992674 
13170325.35157848 
13135731.97141045 
13021724.128725775 
12710272.072170792 
12012678.183332525 
10763700.659311067 
9033813.485140912 
7259338.515094062 
5992690.535978013 
5402132.93134327 
5074060.501802668 
4337714.360296642 
2913273.183784509 
1104660.599971022 
-626215.1039155396 
-1207651.1596483153 
-558624.2742538293 
-240201.27216436667 
-391796.4137204045 
-424947.25665571314 
13452097.56292155 
13443099.037740279 
13399105.186271472 
13254334.316013804 
12861855.381501276 
11998980.369954018 
10511957.557983657 
8599320.719773907 
6893283.966986846 
5933413.357476535 
5504376.028283785 
4882825.506618391 
3624300.6419086447 
1914414.8280472308 
478590.7929314635 
-337889.3933044772 
-351828.874545984 
40959.507593119415 
-313732.98202294315 
-96841.27341020817 
597320.9914872079 
13375307.630325306 
13364476.276877224 
13311477.65756915 
13137302.385597743 
12668101.521355106 
11652650.871278496 
9960556.569556165 
7931989.595458586 
6376962.574471151 
5721188.723385847 
5256723.010124211 
4133172.695977838 
2573375.034130737 
1102279.968845801 
198767.01867525862 
6398.251002218627 
-187375.64401720103 
-72301.51513941631 
-186691.40176105144 
-354806.6591740138 
-74399.12231171026 
13326856.159741502 
13314495.761417365 
13253980.72941979 
13055302.99832902 
12522642.615733113 
11383558.637619173 
9535051.659448512 
7446905.85016933 
6066978.888733329 
5651182.151373901 
5005416.939894947 
3352014.3764573936 
1830057.1517503913 
948605.2737685322 
194573.87252159184 
72662.5303799081 
-137853.62878572464 
-196242.46618632704 
139498.28140092728 
46660.93433487232 
2742.915351081465 
13423762.405077778 
13410384.957330745 
13344868.634952936 
13129907.066494804 
12555290.216460356 
11335650.843245918 
9389796.328977538 
7278671.520607532 
6035680.278510466 
5766769.193129145 
4923161.10955304 
2883181.1913715866 
1579880.8234112617 
1262116.7787436272 