<?xml version="1.0"?>
<VTKFile type="UnstructuredGrid" version="0.1" byte_order="LittleEndian" compressor="vtkZLibDataCompressor">
<UnstructuredGrid>
<Piece NumberOfPoints="441" NumberOfCells="400">
<PointData>
<DataArray type="Float64" Name="displacement" NumberOfComponents="3" format="ascii" >
0.0 -1.3545425132037105e-45  0.
-3.770022020754762e-45 -2.4154224743400736e-45  0.
-6.695671761827483e-45 -5.10588286675635e-46  0.
-9.039425101040614e-45 -1.831808064034544e-45  0.
-1.5750689457803154e-44 -4.874168644832546e-45  0.
-5.796770654169308e-44 -3.732717848330345e-44  0.
-2.18784238576658e-43 -1.2343034785707924e-43  0.
-8.178651498793466e-43 -4.7550806070459175e-43  0.
-2.601363177971503e-42 -1.3076596028415562e-42  0.
-7.360806794735185e-42 -3.4511698832860205e-42  0.
-1.846886916400624e-41 -7.655982462482263e-42  0.
-4.096038615289875e-41 -1.4834585627802804e-41  0.
-8.116129510159787e-41 -2.5365585107691557e-41  0.
-1.4234471197155902e-40 -3.5818764962617746e-41  0.
-2.2247456786693536e-40 -4.4313010582541064e-41  0.
-3.0702059615655894e-40 -4.0240500990170334e-41  0.
-3.7276603171702635e-40 -2.548153633656214e-41  0.
-3.905432877352763e-40 7.473259799425947e-42  0.
-3.407743799307425e-40 4.415779536637757e-41  0.
-2.0956639501758414e-40 7.126853477055907e-41  0.
-1.2046216925609162e-40 1.5243156093080846e-40  0.
0.0 -8.108996593308749e-43  0.
-1.7404683492669654e-42 -9.334860992346209e-43  0.
-2.9495916629142226e-42 -2.7826022306511345e-43  0.
-3.554489911715009e-42 -3.291933913575573e-43  0.
-4.93853509551599e-42 -1.061519591886045e-42  0.
-1.1382967623500036e-41 -5.4251393021550196e-42  0.
-5.100794114415415e-41 -3.4360281015424595e-41  0.
-1.8850012763273048e-40 -1.0373212537021044e-40  0.
-6.845526210095864e-40 -3.941009259587995e-40  0.
-2.0744986431792302e-39 -1.0006117717526084e-39  0.
-5.6792488704068866e-39 -2.6152150078814843e-39  0.
-1.389242977405089e-38 -5.620586946756388e-39  0.
-2.9881636083429933e-38 -1.0408384195095106e-38  0.
-5.727416491506627e-38 -1.7046371781582994e-38  0.
-9.565237528679867e-38 -2.1410198656171883e-38  0.
-1.4053818565360441e-37 -2.356363528370079e-38  0.
-1.78427463896757e-37 -1.437349758074536e-38  0.
-1.936410311582911e-37 -9.866262534582279e-40  0.
-1.7334609971582741e-37 2.2346747202869466e-38  0.
-1.075523489071779e-37 3.5323548782410653e-38  0.
-6.301203253009301e-38 7.979091574529295e-38  0.
0.0 -1.911814012753055e-39  0.
-2.860319183476739e-40 1.617858408859448e-39  0.
-2.91747063093408e-40 -1.616164854081713e-39  0.
-1.0132010789048012e-39 8.84728526298423e-40  0.
-1.6410883051767556e-39 -1.510820444042629e-39  0.
-5.7266259686179774e-39 -2.5892093633737077e-39  0.
-1.906109429137007e-38 -1.0822940298236945e-38  0.
-8.777500117377365e-38 -5.817361411730054e-38  0.
-3.011385125324445e-37 -1.5616292924398096e-37  0.
-1.0490427254810229e-36 -5.9457261077655175e-37  0.
-3.0059705575004626e-36 -1.3694689887502532e-36  0.
-8.09822642355518e-36 -3.7394961225414905e-36  0.
-1.990289312487573e-35 -8.096104167769797e-36  0.
-4.200734562242812e-35 -1.4068278292787395e-35  0.
-7.82692131265e-35 -2.2255547166519808e-35  0.
-1.2290009929347258e-34 -2.2491968746423508e-35  0.
-1.661099750863007e-34 -2.0750338573391479e-35  0.
-1.8713493889620321e-34 -4.694887400013147e-37  0.
-1.7137822453128187e-34 1.7340441122440235e-35  0.
-1.0852560777188258e-34 3.7048780328272386e-35  0.
-6.20134670073462e-35 7.935074191328203e-35  0.
0.0 7.725709634868222e-36  0.
3.8025817814361105e-36 -3.9612542067597895e-36  0.
3.923493450198655e-36 4.16208907556317e-36  0.
4.208616556587555e-36 -3.943984327167496e-36  0.
9.585808040885933e-37 7.223005958972308e-37  0.
-1.519417208232749e-36 -3.2156475131598975e-36  0.
-1.0904852057832286e-35 -6.192627367494967e-36  0.
-3.5553400077009156e-35 -1.8616880958768275e-35  0.
-1.4364039349222504e-34 -8.980912824147169e-35  0.
-4.407360628067423e-34 -2.0899675704233743e-34  0.
-1.4507903948135073e-33 -8.045992161357372e-34  0.
-3.9473634733563996e-33 -1.702856000103584e-33  0.
-1.0986212925876069e-32 -5.3593284540361186e-33  0.
-2.8533346213160557e-32 -1.2240410100376403e-32  0.
-5.908709761314244e-32 -1.832595976058756e-32  0.
-1.0503770670769477e-31 -2.786993525426192e-32  0.
-1.5038382491142316e-31 -1.7355643132301586e-32  0.
-1.7835100390489358e-31 -1.0924291420804207e-32  0.
-1.684464588742423e-31 2.215332052767213e-32  0.
-1.0539903846831096e-31 3.247708548616337e-32  0.
-6.363032191645533e-32 8.055721271987983e-32  0.
0.0 -6.06291161338074e-33  0.
7.255087081082525e-33 1.3130078983553277e-32  0.
1.1322187133038713e-32 -8.673189049259314e-33  0.
5.479955729595285e-33 2.555982270450442e-33  0.
3.595392342381229e-33 -4.3528556569169394e-33  0.
-4.593401644988897e-34 2.807651342277585e-34  0.
-4.369615321586637e-33 -4.208652379871697e-33  0.
-2.072902582121639e-32 -1.2241905247940752e-32  0.
-6.004992335637368e-32 -2.706258619355439e-32  0.
-2.0390510330454763e-31 -1.1806312345015454e-31  0.
-5.5784217686058994e-31 -2.3669633080227995e-31  0.
-1.722932289133957e-30 -9.349591564955267e-31  0.
-4.6620564021777835e-30 -2.0162667020284876e-30  0.
-1.4406205429317187e-29 -7.742025748846954e-30  0.
-3.96734758385415e-29 -1.7527693993782256e-29  0.
-7.655144924458461e-29 -1.9908751410385378e-29  0.
-1.2469558966013505e-28 -2.7532398944300563e-29  0.
-1.5448684334480138e-28 -2.9228641347232588e-30  0.
-1.5323288648042292e-28 5.611700654549663e-30  0.
-1.0073230806654422e-28 3.63786842261592e-29  0.
-5.395608554862805e-29 7.398587696410373e-29  0.
0.0 2.145620410967545e-29  0.
1.2512328751216102e-29 -9.586908742057812e-30  0.
8.567920425833933e-30 6.83072713872424e-30  0.
7.758719952939068e-30 -8.301620122437486e-30  0.
-3.709641088841023e-31 2.943211419642082e-31  0.
-3.41337239365119e-32 3.5721116161073346e-32  0.
-3.428154343357252e-32 -4.371913854529403e-32  0.
-6.632626847551928e-30 -6.599278782238221e-30  0.
-3.0607955617044346e-29 -1.7114718586223448e-29  0.
-7.595578629732353e-29 -2.984305271636558e-29  0.
-2.350394976485958e-28 -1.2726943660486793e-28  0.
-6.15708971930874e-28 -2.6339559379430233e-28  0.
-1.8726589564255333e-27 -9.929172239170075e-28  0.
-5.275269355627666e-27 -2.4393198190834846e-27  0.
-1.7139618831496568e-26 -9.758387310975061e-27  0.
-4.453524184592396e-26 -1.814011306900571e-26  0.
-7.620626947040654e-26 -1.1870436239610338e-26  0.
-1.0310115246905895e-25 -1.621438518302384e-26  0.
-1.1440344572246951e-25 6.219265982093292e-27  0.
-8.376460609958368e-26 1.352902040127775e-26  0.
-6.382737430953439e-26 8.022307583855929e-26  0.
0.0 1.9405880778815468e-22  0.
1.3532394855362584e-26 1.9406308229923492e-22  0.
7.926817721184228e-27 1.9404680311535197e-22  0.
-2.2041695486958546e-28 1.9405595598036527e-22  0.
-1.580949333598078e-29 1.9405580626151052e-22  0.
3.2661324676258556e-31 1.9405578893765268e-22  0.
-1.1546345255798128e-30 1.9405578792966174e-22  0.
-3.8792891169458986e-29 1.9405573954480132e-22  0.
-6.3728308226786464e-27 1.9404951264154453e-22  0.
-2.7152687142848216e-26 1.9403961018365134e-22  0.
-6.813435272254735e-26 1.940336823528987e-22  0.
-2.5156651195147817e-25 1.9388579877098658e-22  0.
-9.640128350371796e-25 1.936692539698577e-22  0.
-2.2448401983649634e-24 1.9322769666280862e-22  0.
-5.680134091235734e-24 1.9169612883587628e-22  0.
-1.6356798521589162e-23 1.8770556112199413e-22  0.
-5.798853329133214e-23 1.6758102548703488e-22  0.
-6.80849999752324e-23 1.726797645719329e-23  0.
-5.592221907441245e-23 -8.105154746065174e-24  0.
-5.701773728764645e-23 -7.3157148249426045e-25  0.
-6.318501203502385e-23 5.636526644401057e-23  0.
0.0 1.1667484636986817e-19  0.
4.6424344449330275e-24 1.1672134396677851e-19  0.
-7.079931008234931e-26 1.1672461110671423e-19  0.
-4.762047741215708e-27 1.1672456241136213e-19  0.
7.763148613705769e-29 1.1672455715077245e-19  0.
2.52493853188357e-30 1.1672455718767654e-19  0.
-2.015414977033134e-30 1.1672455718612824e-19  0.
-2.4552766838656738e-27 1.1672455464359714e-19  0.
-7.233210366384584e-26 1.1672447528089486e-19  0.
-3.2187996639654722e-24 1.167213887957255e-19  0.
-1.5771795336689157e-23 1.1671857022862303e-19  0.
-3.553638112780976e-23 1.1671240362197555e-19  0.
-2.949752443793653e-22 1.165280062613463e-19  0.
-3.665205252577929e-22 1.1540626883870495e-19  0.
-1.0472319615555784e-21 1.1408423663127221e-19  0.
-2.3759984560566693e-21 1.1109358855248446e-19  0.
-3.832161900280631e-21 1.0417299009128207e-19  0.
-5.690736230086282e-21 9.55515547765478e-20  0.
-8.286131569742309e-21 8.118658244893475e-20  0.
-1.0627610512550065e-20 6.189934698923931e-20  0.
-3.225944397523474e-20 6.321474203793899e-20  0.
0.0 6.329637045953739e-18  0.
-1.6905265750492903e-23 6.3305818573603655e-18  0.
-7.7168312091431725e-25 6.330585915361191e-18  0.
1.2976039055442503e-26 6.330584981328835e-18  0.
4.801556637230899e-28 6.33058498189623e-18  0.
9.690290948949776e-30 6.3305849824511394e-18  0.
-1.0646663932532103e-29 6.330584982448811e-18  0.
-1.6064003132888592e-27 6.330584976291119e-18  0.
-2.8535458950509493e-24 6.330582081093444e-18  0.
-1.3182159406936558e-22 6.330476516823071e-18  0.
-7.836519391157388e-22 6.329231775474984e-18  0.
-2.4463202510220855e-21 6.325623335084046e-18  0.
-8.673104770440972e-21 6.313325094836942e-18  0.
-2.150536633405886e-20 6.285518021583923e-18  0.
-5.010547297301366e-20 6.217539464376523e-18  0.
-1.0402087918459012e-19 6.069332644285964e-18  0.
-1.8421834050844196e-19 5.7923055296200145e-18  0.
-2.91525448138421e-19 5.333894146812523e-18  0.
-4.262306319656685e-19 4.645627965240147e-18  0.
-5.881117901849615e-19 3.731709142446308e-18  0.
-1.976036707841892e-18 3.799703215981084e-18  0.
0.0 2.8635161477529225e-16  0.
-6.514325051847589e-23 2.8635151953549896e-16  0.
1.278681970220637e-24 2.8635143944308466e-16  0.
5.806003074198053e-26 2.8635143922237794e-16  0.
1.2612477383950538e-27 2.863514392917507e-16  0.
1.6656139292034968e-29 2.863514392939751e-16  0.
-4.0379483762505935e-29 2.863514392939473e-16  0.
-2.104900567763175e-26 2.8635143926540833e-16  0.
9.961921211727185e-25 2.8635143219956474e-16  0.
-1.258684214141339e-21 2.863499387888749e-16  0.
-1.1121578052624636e-20 2.8633739473758435e-16  0.
-6.111911495952947e-20 2.86271788502663e-16  0.
-2.4662716453357817e-19 2.8598850395706303e-16  0.
-7.443094723629153e-19 2.8505254809659514e-16  0.
-1.90210359276644e-18 2.8254489328975164e-16  0.
-4.094586682075468e-18 2.768564859214097e-16  0.
-7.732718218017839e-18 2.6559481868655247e-16  0.
-1.2872516061179423e-17 2.45924410089022e-16  0.
-1.9264654914511594e-17 2.1524853020508785e-16  0.
-2.7315050971806156e-17 1.7343288112305144e-16  0.
-9.256830479601864e-17 1.7752799696651823e-16  0.
0.0 1.087972825426244e-14  0.
2.7021156057336488e-22 1.087972580036392e-14  0.
4.937342158103129e-24 1.0879725786163947e-14  0.
9.219264385562103e-26 1.0879725790586714e-14  0.
1.17053863326363e-27 1.0879725790795169e-14  0.
1.1819735718458645e-29 1.0879725790799738e-14  0.
-3.135915225942632e-28 1.0879725790799379e-14  0.
-3.647259412664729e-26 1.0879725790708287e-14  0.
-6.305460800219249e-23 1.0879725625048998e-14  0.
-3.395847700231375e-21 1.0879724969413249e-14  0.
-8.290188447051111e-20 1.0879664890381839e-14  0.
-1.0761395101586372e-18 1.0878642484482866e-14  0.
-5.3377888374660174e-18 1.0872823051921522e-14  0.
-2.01610654309395e-17 1.0849251391996862e-14  0.
-5.693326495056374e-17 1.0777312229163368e-14  0.
-1.3528016185272505e-16 1.0596788866998134e-14  0.
-2.701776373776581e-16 1.0214424325978629e-14  0.
-4.734699156519009e-16 9.511114495830627e-15  0.
-7.307366918391039e-16 8.372561042806095e-15  0.
-1.065760113209401e-15 6.7817113215097355e-15  0.
-3.635300801253251e-15 6.9701320779576335e-15  0.
0.0 3.413050127189784e-13  0.
2.89093863431586e-22 3.4130501617664065e-13  0.
2.1418430186022176e-24 3.4130501649979604e-13  0.
-1.1349888009529948e-26 3.4130501651187377e-13  0.
7.985987387868945e-28 3.4130501651215897e-13  0.
1.584659547985149e-28 3.41305016512165e-13  0.
-3.9184814637552366e-28 3.4130501651216417e-13  0.
-4.65439059547663e-25 3.4130501651157236e-13  0.
-8.82366856628046e-23 3.4130501659409554e-13  0.
-1.3008066833463737e-20 3.4130500704400527e-13  0.
-4.0464612155053464e-19 3.413047394554221e-13  0.
-7.553678590573136e-18 3.4129896404134533e-13  0.
-8.567033518846736e-17 3.4121797569523973e-13  0.
-3.877513115340626e-16 3.4079362833963356e-13  0.
-1.353117508348979e-15 3.39201787456693e-13  0.
-3.518417541934474e-15 3.347029928804724e-13  0.
-7.718360595607732e-15 3.2425410338115937e-13  0.
-1.418591902280159e-14 3.037994348946176e-13  0.
-2.2924389054759304e-14 2.6913711803296977e-13  0.
-3.436551911981028e-14 2.1932019477088305e-13  0.
-1.182852870305335e-13 2.2656272187545883e-13  0.
0.0 8.6632288375488e-12  0.
-6.451038073840292e-22 8.663228839338337e-12  0.
-8.785180907430613e-24 8.663228839386381e-12  0.
2.636204348022205e-26 8.663228839391808e-12  0.
8.221187494590043e-27 8.663228839392078e-12  0.
1.5910056806401032e-27 8.663228839392094e-12  0.
7.3801410839168015e-28 8.66322883939209e-12  0.
-1.939011054832112e-25 8.663228839390596e-12  0.
-4.221573013992072e-22 8.663228838895737e-12  0.
-4.369397343761294e-20 8.66322881735676e-12  0.
-1.4372089324720335e-18 8.663228018563046e-12  0.
-3.3960403270671205e-17 8.6632063464501e-12  0.
-5.595983092397751e-16 8.662787000687357e-12  0.
-5.527269783118869e-15 8.657597908457377e-12  0.
-2.2635453968930505e-14 8.632767888834198e-12  0.
-7.229949646970281e-14 8.547203303161837e-12  0.
-1.713839735275351e-13 8.325207696812957e-12  0.
-3.438370094441147e-13 7.852433450342944e-12  0.
-5.772306297208784e-13 7.006405482091125e-12  0.
-9.040892735592123e-13 5.749916857920975e-12  0.
-3.12124069526377e-12 5.974428173249014e-12  0.
0.0 1.7350441313611247e-10  0.
-8.606134407991334e-22 1.7350441313122657e-10  0.
-7.58100907792388e-25 1.7350441313111873e-10  0.
-2.8226357334183324e-25 1.7350441313111808e-10  0.
-1.1466383955278106e-26 1.7350441313111816e-10  0.
1.1328298310006433e-26 1.7350441313111816e-10  0.
2.427136279047694e-27 1.7350441313111813e-10  0.
-9.32460487222418e-25 1.7350441313111578e-10  0.
-1.4120884274377417e-21 1.735044131303939e-10  0.
-1.1411682071889134e-19 1.7350441308068054e-10  0.
-4.0692549014562915e-18 1.7350441117758688e-10  0.
-1.1298107746674322e-16 1.7350435120208046e-10  0.
-2.3395361148795497e-15 1.7350291158410915e-10  0.
-3.33658990213181e-14 1.734784820589635e-10  0.
-2.820456192920675e-13 1.7321606279574063e-10  0.
-1.0340508052598382e-12 1.7208046439169266e-10  0.
-2.9861403041648376e-12 1.685260056362612e-10  0.
-6.376030459004505e-12 1.6015422000622613e-10  0.
-1.1590893789584005e-11 1.440381339351846e-10  0.
-1.8768761488197046e-11 1.191696344673737e-10  0.
-6.541860727136307e-11 1.2482083899213784e-10  0.
0.0 2.655772694975494e-09  0.
4.248846815172141e-22 2.6557726949704245e-09  0.
-2.892926067559679e-23 2.6557726949696995e-09  0.
-5.618469634453998e-25 2.6557726949696614e-09  0.
7.734670767011151e-25 2.6557726949696585e-09  0.
4.5730292966495715e-25 2.655772694969659e-09  0.
4.186370277766635e-25 2.655772694969659e-09  0.
-2.575228139498456e-24 2.6557726949696527e-09  0.
-3.598682619356149e-21 2.6557726949682192e-09  0.
-2.4973214266597e-19 2.655772694879834e-09  0.
-9.578577061893894e-18 2.65577269114355e-09  0.
-2.9836022788208886e-16 2.6557725602317165e-09  0.
-7.217826957609303e-15 2.655768936103601e-09  0.
-1.2867051641521014e-13 2.6556931812560205e-09  0.
-1.559501631560223e-12 2.654582818489467e-09  0.
-1.1034509316167781e-11 2.644440325435218e-09  0.
-3.574904041447626e-11 2.6052318818527264e-09  0.
-9.180462730719263e-11 2.4954630629627814e-09  0.
-1.7457693432455313e-10 2.2648982674580945e-09  0.
-3.0479929783593603e-10 1.8919524781816475e-09  0.
-1.0502204214913602e-09 1.9997548222009616e-09  0.
0.0 2.981024317414373e-08  0.
-6.822059161415331e-22 2.981024317414395e-08  0.
5.465976910297699e-23 2.9810243174144066e-08  0.
4.7176446339103166e-24 2.9810243174144007e-08  0.
-3.682222163862018e-24 2.981024317414401e-08  0.
4.381095413491866e-25 2.981024317414401e-08  0.
-1.9213252069428069e-25 2.981024317414401e-08  0.
-9.524016107914274e-25 2.9810243174144e-08  0.
-7.803904996857253e-21 2.981024317414093e-08  0.
-4.651832303161859e-19 2.981024317401065e-08  0.
-1.9216528297782205e-17 2.981024316788969e-08  0.
-6.515879963251135e-16 2.9810242935887e-08  0.
-1.7597931840224625e-14 2.9810235825577575e-08  0.
-3.6480361665170814e-13 2.981006504131085e-08  0.
-5.4912118375887885e-12 2.980700711441179e-08  0.
-5.52297808230903e-11 2.9769017584740045e-08  0.
-3.1792060559410126e-10 2.9481842691715187e-08  0.
-8.95601023969873e-10 2.8506425007566387e-08  0.
-2.00836937763601e-09 2.6127487907837445e-08  0.
-3.6365276626503454e-09 2.207020031110663e-08  0.
-1.2549842768615228e-08 2.365702761343688e-08  0.
0.0 2.322783981449222e-07  0.
3.0341056338517855e-22 2.32278398144929e-07  0.
-2.0299743501850432e-22 2.322783981449305e-07  0.
-9.010583517445499e-23 2.3227839814493088e-07  0.
3.1906428983443616e-23 2.3227839814493075e-07  0.
3.2136399475340534e-23 2.3227839814493075e-07  0.
2.266707274321612e-23 2.3227839814493075e-07  0.
-6.495040587076889e-23 2.322783981449307e-07  0.
-1.2991850858354838e-20 2.322783981449281e-07  0.
-7.708488999160204e-19 2.3227839814474853e-07  0.
-3.3422980204124183e-17 2.3227839813635065e-07  0.
-1.206411429663666e-15 2.32278397799002e-07  0.
-3.5285247513415123e-14 2.3227838665715279e-07  0.
-8.120720000450724e-13 2.3227809223390894e-07  0.
-1.413233958438214e-11 2.322720569591388e-07  0.
-1.7518989566184485e-10 2.3218138301196513e-07  0.
-1.4165907967086333e-09 2.312496051607573e-07  0.
-6.395848517600621e-09 2.2563497294667494e-07  0.
-1.5465634230432e-08 2.093986324010476e-07  0.
-3.2269711358421536e-08 1.792112758288268e-07  0.
-1.0439262263528893e-07 1.949020445983393e-07  0.
0.0 1.1679413761698257e-06  0.
7.531701598945373e-22 1.1679413761698246e-06  0.
-1.5334218253757958e-22 1.167941376169823e-06  0.
3.805304706977751e-22 1.1679413761698231e-06  0.
4.068273825540268e-22 1.1679413761698223e-06  0.
7.425261005852825e-22 1.1679413761698231e-06  0.
4.922167288037904e-22 1.167941376169824e-06  0.
-6.565875088535089e-23 1.167941376169823e-06  0.
-1.8823668031313117e-20 1.1679413761698191e-06  0.
-1.1278472606565343e-18 1.1679413761696332e-06  0.
-5.0943837371284525e-17 1.167941376160108e-06  0.
-1.923759763004027e-15 1.167941375761027e-06  0.
-5.95359625265589e-14 1.1679413618826567e-06  0.
-1.4739141151415981e-12 1.167940968831548e-06  0.
-2.8271638732411737e-11 1.1679321750863635e-06  0.
-4.021302803007151e-10 1.167781388199043e-06  0.
-3.972287415850102e-09 1.1659289979444292e-06  0.
-2.474937026030964e-08 1.1507202858565282e-06  0.
-8.461452331029878e-08 1.0824491514265104e-06  0.
-1.9107319981061004e-07 9.430534821580602e-07  0.
-5.795786113233467e-07 1.0449230036915042e-06  0.
0.0 3.487761736864926e-06  0.
9.774179983120148e-22 3.487761736864922e-06  0.
-2.4097532454530766e-21 3.487761736864923e-06  0.
4.8235394203587285e-22 3.4877617368649206e-06  0.
-1.0017130250866939e-21 3.4877617368649206e-06  0.
-3.671284739800043e-22 3.487761736864919e-06  0.
-7.225124210403922e-23 3.487761736864919e-06  0.
-1.183279707877148e-21 3.4877617368649206e-06  0.
-2.6534955838573216e-20 3.4877617368649168e-06  0.
-1.4772898490145002e-18 3.4877617368647478e-06  0.
-6.847611566033647e-17 3.487761736856289e-06  0.
-2.6659436914059243e-15 3.4877617364913676e-06  0.
-8.56854656031152e-14 3.487761723328892e-06  0.
-2.2260969137703344e-12 3.487761333880681e-06  0.
-4.550431885191786e-11 3.487752053867711e-06  0.
-7.064220697787521e-10 3.4875800978244917e-06  0.
-7.927063874892376e-09 3.4851734457675065e-06  0.
-5.984569010200457e-08 3.461882295017498e-06  0.
-2.749630672019328e-07 3.321310738491982e-06  0.
-7.50198090930341e-07 2.978994067760679e-06  0.
-1.9142337715135705e-06 3.306174070088377e-06  0.
0.0 6.1610268584018305e-06  0.
2.0115476791263118e-21 6.161026858401834e-06  0.
-2.0413976391650667e-21 6.161026858401832e-06  0.
7.940380752540066e-22 6.161026858401833e-06  0.
-1.6499399419085435e-22 6.161026858401832e-06  0.
-2.1056187605830623e-22 6.161026858401832e-06  0.
-8.591022944391376e-22 6.161026858401832e-06  0.
6.104266671967653e-22 6.161026858401833e-06  0.
-3.031874150431521e-20 6.161026858401831e-06  0.
-1.733671950648743e-18 6.161026858401738e-06  0.
-8.155829437255448e-17 6.161026858396745e-06  0.
-3.231661069490584e-15 6.161026858177825e-06  0.
-1.0615775820762078e-13 6.16102685011989e-06  0.
-2.8350012237118304e-12 6.161026604835796e-06  0.
-6.009368642285692e-11 6.161020568253585e-06  0.
-9.80401377546123e-10 6.160902518479611e-06  0.
-1.1838223432098965e-08 6.1591458845676764e-06  0.
-1.0016207527585171e-07 6.139969076296876e-06  0.
-5.526249112863593e-07 6.009485789950459e-06  0.
-1.7975685881833953e-06 5.641320393503927e-06  0.
-3.37025214904105e-06 6.0441747385861605e-06  0.
0.0 8.449999999999999e-06  0.
-1.9280141255693077e-21 8.449999999999999e-06  0.
8.794202341134608e-22 8.449999999999999e-06  0.
3.4324826827730877e-22 8.449999999999999e-06  0.
-2.1065502283712182e-23 8.449999999999999e-06  0.
-7.653130416977483e-22 8.449999999999999e-06  0.
-1.4442527472743924e-21 8.449999999999999e-06  0.
9.90441640933872e-22 8.449999999999999e-06  0.
-2.974600823360841e-20 8.449999999999999e-06  0.
-1.8287423203020346e-18 8.449999999999999e-06  0.
-8.641484192449138e-17 8.449999999999999e-06  0.
-3.4438512399706886e-15 8.449999999999999e-06  0.
-1.13935137179146e-13 8.449999999999999e-06  0.
-3.0704942960077083e-12 8.449999999999999e-06  0.
-6.585232286531344e-11 8.449999999999999e-06  0.
-1.0924083412779963e-09 8.449999999999999e-06  0.
-1.350792694568658e-08 8.449999999999999e-06  0.
-1.1900512391491862e-07 8.449999999999999e-06  0.
-6.975131798180871e-07 8.449999999999999e-06  0.
-2.419691516425859e-06 8.449999999999999e-06  0.
-3.889067464646818e-06 8.449999999999999e-06  0.
</DataArray>
<DataArray type="Float64" Name="sigma_xx" NumberOfComponents="1" format="ascii" >
0.0 
0.0 
0.0 
0.0 
0.0 
0.0 
0.0 
0.0 
0.0 
0.0 
0.0 
0.0 
0.0 
0.0 
0.0 
0.0 
0.0 
0.0 
0.0 
0.0 
0.0 
0.0 
0.0 
0.0 
0.0 
0.0 
0.0 
0.0 
0.0 
0.0 
0.0 
0.0 
0.0 
0.0 
0.0 
0.0 
0.0 
0.0 
0.0 
0.0 
0.0 
0.0 
0.0 
0.0 
0.0 
0.0 
0.0 
0.0 
0.0 
0.0 
0.0 
0.0 
0.0 
0.0 
0.0 
0.0 
0.0 
0.0 
0.0 
0.0 
0.0 
0.0 
0.0 
0.0 
0.0 
0.0 
0.0 
0.0 
0.0 
0.0 
0.0 
0.0 
0.0 
0.0 
0.0 
0.0 
0.0 
0.0 
0.0 
0.0 
0.0 
0.0 
0.0 
0.0 
0.0 
0.0 
0.0 
0.0 
0.0 
0.0 
0.0 
0.0 
0.0 
0.0 
0.0 
0.0 
0.0 
0.0 
0.0 
0.0 
0.0 
0.0 
0.0 
0.0 
0.0 
0.0 
0.0 
0.0 
0.0 
0.0 
0.0 
0.0 
0.0 
0.0 
0.0 
0.0 
0.0 
0.0 
0.0 
0.0 
0.0 
0.0 
0.0 
0.0 
0.0 
0.0 
3.108624468950437e-07 
3.108624468950437e-07 
3.108624468950437e-07 
3.108624468950437e-07 
3.108624468950437e-07 
3.108624468950437e-07 
3.108624468950437e-07 
3.108624468950437e-07 
3.108624468950437e-07 
3.108624468950437e-07 
3.108624468950437e-07 
3.108624468950437e-07 
3.108624468950437e-07 
3.108624468950437e-07 
3.108624468950437e-07 
3.108624468950437e-07 
3.108624468950437e-07 
3.108624468950437e-07 
2.331468351712828e-07 
7.771561172376093e-08 
0.0 
1.771915947301749e-05 
1.771915947301749e-05 
1.771915947301749e-05 
1.771915947301749e-05 
1.771915947301749e-05 
1.771915947301749e-05 
1.771915947301749e-05 
1.771915947301749e-05 
1.771915947301749e-05 
1.771915947301749e-05 
1.771915947301749e-05 
1.771915947301749e-05 
1.771915947301749e-05 
1.7569279364693095e-05 
1.7336132529521813e-05 
1.6803225477701737e-05 
1.5953904863863493e-05 
1.4632739464559556e-05 
1.26176846748649e-05 
9.092726571680029e-06 
6.661338147750936e-06 
0.0008014033880954228 
0.0008014033880954228 
0.0008014033880954228 
0.0008014033880954228 
0.0008014033880954228 
0.0008014033880954228 
0.0008014033880954228 
0.0008014033880954228 
0.0008014033880954228 
0.0008014033880954228 
0.0008013312235988221 
0.0008008094187772483 
0.0007991440842403106 
0.0007945810676091012 
0.000784111664486886 
0.0007631617560122093 
0.0007257028311613565 
0.0006651290629378079 
0.0005754230425480953 
0.0004183653423694976 
0.0003140709914362104 
0.030445557186453687 
0.030445557186453687 
0.030445557186453687 
0.030445557186453687 
0.030445557186453687 
0.030445557186453687 
0.030445557186453687 
0.030445557186453687 
0.030445557186453687 
0.030445407306345363 
0.030443186860296113 
0.03043153506965267 
0.030387004024134957 
0.030254909688665056 
0.029924540623227348 
0.029220331709822734 
0.027897106846808118 
0.02568287804649571 
0.022306206881594896 
0.016254914081414988 
0.01221830414621649 
0.9548522417190949 
0.9548522417190949 
0.9548522417190949 
0.9548522417190949 
0.9548522417190949 
0.9548522417190949 
0.9548522417190949 
0.9548522417190949 
0.9548522417190949 
0.9548512869272937 
0.9548350998755947 
0.9546583024100382 
0.9538248690876824 
0.9508237031052854 
0.9425674352137033 
0.9233948994324944 
0.8854110944422896 
0.819031958920746 
0.7145888936133102 
0.5219045473570103 
0.39202237012148067 
24.226577521879726 
24.226577521879726 
24.226577521879726 
24.226577521879726 
24.226577521879726 
24.226577521879726 
24.226577521879726 
24.226577521879726 
24.22657744971523 
24.226573946961587 
24.22649648670116 
24.22528877499274 
24.213878979661978 
24.165120576791203 
24.00404210955997 
23.596937576142444 
22.725486503727403 
21.131474381430586 
18.525921569034757 
13.557305816869198 
10.187173471454255 
484.8567789261791 
484.8567788484635 
484.8567787707479 
484.8567787707479 
484.8567787707479 
484.8567787707479 
484.8567787707479 
484.8567787707479 
484.8567784820899 
484.85676807930014 
484.85649270513227 
484.8511112875984 
484.7789600415096 
484.19716527914306 
481.96752808760107 
475.2888250691976 
459.93541162303563 
429.90902818229574 
378.8437229645946 
277.6703545259717 
207.92549580983524 
7411.923834022003 
7411.923833944287 
7411.923833866572 
7411.923833866572 
7411.923833866572 
7411.923833866572 
7411.923833866572 
7411.923833866572 
7411.923833144927 
7411.923806943663 
7411.923026129361 
7411.90518432355 
7411.606910479039 
7408.232577882365 
7385.531277304122 
7308.596759464379 
7102.895169897036 
6677.652723269255 
5912.887963480105 
4335.269751756796 
3245.549080277409 
82984.95040643946 
82984.95040643946 
82984.95040643946 
82984.95040643946 
82984.95040643946 
82984.95040643946 
82984.95040643946 
82984.95040643946 
82984.95040484628 
82984.95034819716 
82984.94850863534 
82984.90143329726 
82983.98515737546 
82971.15449138744 
82851.8740512207 
82202.19002290914 
80291.47743535967 
75824.669566632 
67453.44045445963 
49343.33264387523 
36505.99539524178 
643060.1972730486 
643060.1972730486 
643060.1972730486 
643060.1972730486 
643060.1972730486 
643060.1972730486 
643060.1972730486 
643060.1972730486 
643060.1972703785 
643060.197163847 
643060.1934709288 
643060.0906598303 
643057.859979884 
643021.6924158598 
642609.3124776015 
639571.6601022974 
626713.7669354492 
594709.368996554 
529364.2911177175 
384213.64989011374 
282602.2732261345 
3189333.256361858 
3189333.256361858 
3189333.256361858 
3189333.256361858 
3189333.256361858 
3189333.256361858 
3189333.256361858 
3189333.256361858 
3189333.2563578226 
3189333.256181286 
3189333.249757086 
3189333.0594213773 
3189328.590670647 
3189248.3063605414 
3188195.943720092 
3178802.5993890036 
3126815.560157133 
2964939.853017211 
2624260.750270826 
1857637.9135544072 
1313388.5303423014 
9132873.037216058 
9132873.037216058 
9132873.037216058 
9132873.037216058 
9132873.037216058 
9132873.037216058 
9132873.037216058 
9132873.037216058 
9132873.037210211 
9132873.036950924 
9132873.027166568 
9132872.72395192 
9132865.194496438 
9132719.833205685 
9130625.039052106 
9109333.566444613 
8968852.573849622 
8428966.924174402 
7234870.279241471 
4761231.793702511 
3062950.4920433355 
14015717.506414056 
14015717.506414056 
14015717.506414056 
14015717.506414056 
14015717.506414056 
14015717.506414056 
14015717.506414056 
14015717.506414056 
14015717.506406482 
14015717.506067123 
14015717.492924735 
14015717.07306935 
14015706.247401051 
14015487.027897928 
14012124.213443084 
13974932.002190027 
13698903.41935001 
12462346.272333317 
9499273.849126235 
5004903.733460441 
2479039.2791472357 
13928947.221246462 
13928947.221246464 
13928947.221246464 
13928947.221246464 
13928947.221246464 
13928947.221246464 
13928947.221246464 
13928947.221246464 
13928947.221237592 
13928947.220839113 
13928947.2051849 
13928946.696195705 
13928933.283786101 
13928654.136956844 
13924215.624540692 
13872686.766789261 
13462918.045519892 
11442992.888256028 
6247900.576800273 
1306954.2941986036 
-96412.68642132916 
12847590.221990308 
12847590.221990308 
12847590.221990308 
12847590.221990308 
12847590.221990308 
12847590.221990308 
12847590.221990308 
12847590.221990308 
12847590.221980926 
12847590.22156043 
12847590.204972032 
12847589.662470143 
12847575.265286334 
12847272.906031193 
12842409.198474698 
12785022.42336993 
12318277.512766387 
9939652.935358807 
3653397.9692485975 
-910829.1824468616 
-1153492.5907803497 
</DataArray>
<DataArray type="Float64" Name="sigma_yy" NumberOfComponents="1" format="ascii" >
0.0 
0.0 
0.0 
0.0 
0.0 
0.0 
0.0 
0.0 
0.0 
0.0 
0.0 
0.0 
0.0 
0.0 
0.0 
0.0 
0.0 
0.0 
0.0 
0.0 
0.0 
0.0 
0.0 
0.0 
0.0 
0.0 
0.0 
0.0 
0.0 
0.0 
0.0 
0.0 
0.0 
0.0 
0.0 
0.0 
0.0 
0.0 
0.0 
0.0 
0.0 
0.0 
0.0 
0.0 
0.0 
0.0 
0.0 
0.0 
0.0 
0.0 
0.0 
0.0 
0.0 
0.0 
0.0 
0.0 
0.0 
0.0 
0.0 
0.0 
0.0 
0.0 
0.0 
0.0 
0.0 
0.0 
0.0 
0.0 
0.0 
0.0 
0.0 
0.0 
0.0 
0.0 
0.0 
0.0 
0.0 
0.0 
0.0 
0.0 
0.0 
0.0 
0.0 
0.0 
0.0 
0.0 
0.0 
0.0 
0.0 
0.0 
0.0 
0.0 
0.0 
0.0 
0.0 
0.0 
0.0 
0.0 
0.0 
0.0 
0.0 
0.0 
0.0 
0.0 
0.0 
0.0 
0.0 
0.0 
0.0 
0.0 
0.0 
0.0 
0.0 
0.0 
0.0 
0.0 
0.0 
0.0 
0.0 
0.0 
0.0 
0.0 
0.0 
0.0 
0.0 
0.0 
5.773159728050813e-07 
5.773159728050813e-07 
5.773159728050813e-07 
5.773159728050813e-07 
5.773159728050813e-07 
5.773159728050813e-07 
5.773159728050813e-07 
5.773159728050813e-07 
5.773159728050813e-07 
5.773159728050813e-07 
5.773159728050813e-07 
5.773159728050813e-07 
5.773159728050813e-07 