<?xml version="1.0"?>
<VTKFile type="UnstructuredGrid" version="0.1" byte_order="LittleEndian" compressor="vtkZLibDataCompressor">
<UnstructuredGrid>
<Piece NumberOfPoints="441" NumberOfCells="400">
<PointData>
<DataArray type="Float64" Name="displacement" NumberOfComponents="3" format="ascii" >
0.0 7.208851900796385e-13  0.
-9.951650515799535e-20 7.208850916571839e-13  0.
-4.543654005752177e-19 7.20884659329433e-13  0.
-1.8201955215300837e-18 7.208828292733192e-13  0.
-6.534607463479774e-18 7.20875939521547e-13  0.
-2.0908189436805344e-17 7.208531077147991e-13  0.
-6.035885519804366e-17 7.207848446883104e-13  0.
-1.583686897848589e-16 7.205997720875177e-13  0.
-3.806383057015329e-16 7.201409037129144e-13  0.
-8.431512009944945e-16 7.190936199753857e-13  0.
-1.7302183101822618e-15 7.168818845189682e-13  0.
-3.3041010946441283e-15 7.125390270927425e-13  0.
-5.893990067585108e-15 7.045793453065098e-13  0.
-9.853275509355498e-15 6.909160670891402e-13  0.
-1.547948274167703e-14 6.688864578077074e-13  0.
-2.290626908674407e-14 6.354429215748061e-13  0.
-3.1991699457448506e-14 5.875389518193311e-13  0.
-4.225252923988175e-14 5.226891030592376e-13  0.
-5.305157313896717e-14 4.397865841098459e-13  0.
-6.763065590152606e-14 3.436250333287186e-13  0.
-1.6411584231349104e-13 3.463944418296328e-13  0.
0.0 3.5852410299509728e-12  0.
-2.6254530318914983e-19 3.5852408666653672e-12  0.
-1.3442084720206017e-18 3.585239744128394e-12  0.
-5.885172894525964e-18 3.5852345059807245e-12  0.
-2.271494196289911e-17 3.5852132595122734e-12  0.
-7.749454498383884e-17 3.5851373174764388e-12  0.
-2.364910118715457e-16 3.5848953944584844e-12  0.
-6.515677629744671e-16 3.584201748135217e-12  0.
-1.6340503382542433e-15 3.582396089578406e-12  0.
-3.7559420771010416e-15 3.5780975329574897e-12  0.
-7.9600738685133e-15 3.5686795745655115e-12  0.
-1.563223874901166e-14 3.549588115772684e-12  0.
-2.856947413267106e-14 3.513617803750389e-12  0.
-4.8767329295275494e-14 3.450384901405158e-12  0.
-7.799233021603273e-14 3.3463302705724686e-12  0.
-1.1716660349764282e-13 3.1855958923977426e-12  0.
-1.6571224352070264e-13 2.951979323986821e-12  0.
-2.2111506415688997e-13 2.6319228691570635e-12  0.
-2.8006993524179314e-13 2.2192097455000806e-12  0.
-3.635760025163998e-13 1.7457788908835411e-12  0.
-9.828523198713565e-13 1.8087701771334485e-12  0.
0.0 3.111797083544364e-11  0.
-1.1643164685727322e-18 3.1117970114962004e-11  0.
-6.547200305008457e-18 3.1117965124797236e-11  0.
-3.143009301602235e-17 3.111793956247491e-11  0.
-1.3092556367562745e-16 3.111782688097465e-11  0.
-4.788106232596367e-16 3.111739266772329e-11  0.
-1.5530593210541327e-15 3.1115914903993494e-11  0.
-4.513692454379736e-15 3.111142497580201e-11  0.
-1.1858028717445841e-14 3.1099132392814726e-11  0.
-2.83814476110084e-14 3.1068553874996945e-11  0.
-6.229388605246632e-14 3.0998954250469585e-11  0.
-1.2610336933365247e-13 3.085312653531267e-11  0.
-2.365671905005729e-13 3.0570418823383815e-11  0.
-4.12974912922861e-13 3.0061087592159774e-11  0.
-6.731936668471232e-13 2.920515521327913e-11  0.
-1.0277672403228231e-12 2.7859213194797925e-11  0.
-1.4732320054320948e-12 2.5873520565736648e-11  0.
-1.9874797463081526e-12 2.311948328196267e-11  0.
-2.5401613719200596e-12 1.9534998959479443e-11  0.
-3.326091619065448e-12 1.540918662666318e-11  0.
-8.933695048802964e-12 1.60831597099924e-11  0.
0.0 2.402262641380474e-10  0.
-4.546530306535994e-18 2.402262614907469e-10  0.
-2.781617539509213e-17 2.4022624184124e-10  0.
-1.4486885450670633e-16 2.402261326785906e-10  0.
-6.526617468316937e-16 2.402256102007052e-10  0.
-2.5627421569076983e-15 2.402234387325171e-10  0.
-8.859090065960658e-15 2.4021552649194844e-10  0.
-2.722773842713265e-14 2.401899962020843e-10  0.
-7.512025699008864e-14 2.401163121852582e-10  0.
-1.8759754806277007e-13 2.3992441156808405e-10  0.
-4.2721264672624524e-13 2.394698745420161e-10  0.
-8.927247918778402e-13 2.384841584318682e-10  0.
-1.721125265162913e-12 2.365156797023569e-10  0.
-3.0754970217130935e-12 2.328779184921151e-10  0.
-5.113788641372922e-12 2.266307148778403e-10  0.
-7.938422728078138e-12 2.166254095939138e-10  0.
-1.1537891537886658e-11 2.0163649377650954e-10  0.
-1.574332445234801e-11 1.8058548633420536e-10  0.
-2.0322845375372954e-11 1.5293392775555466e-10  0.
-2.6969274825526254e-11 1.2114868315205253e-10  0.
-7.116371101011898e-11 1.273494441526059e-10  0.
0.0 1.6196063753733414e-09  0.
-1.5766628735309e-17 1.6196063667997953e-09  0.
-1.0393452177760747e-16 1.6196062991133534e-09  0.
-5.837781986400739e-16 1.6196058932419388e-09  0.
-2.834778234326281e-15 1.6196037946881355e-09  0.
-1.1947653437782441e-14 1.6195943990872949e-09  0.
-4.4038026126929326e-14 1.6195577472650843e-09  0.
-1.4332512166692618e-13 1.619432000454596e-09  0.
-4.157766057859168e-13 1.6190489282948545e-09  0.
-1.0848065586647924e-12 1.6180029567071815e-09  0.
-2.565704374449198e-12 1.6154217757905919e-09  0.
-5.539302191346468e-12 1.6096223831955175e-09  0.
-1.0981811856900804e-11 1.5976835149574375e-09  0.
-2.009599158564119e-11 1.5750399364824776e-09  0.
-3.409261486254264e-11 1.535287557271333e-09  0.
-5.3822498934673395e-11 1.4704298892685843e-09  0.
-7.932424684358154e-11 1.371755369546791e-09  0.
-1.0948639890318317e-10 1.2314222739276887e-09  0.
-1.4280950468002766e-10 1.0454561064057851e-09  0.
-1.923124913195918e-10 8.325604917977796e-10  0.
-4.96563887242931e-10 8.827415694786253e-10  0.
0.0 9.43249371703668e-09  0.
-4.909283462868285e-17 9.43249369231075e-09  0.
-3.448623269415902e-16 9.432493485745185e-09  0.
-2.0746911256980472e-15 9.432492159725188e-09  0.
-1.080045049004302e-14 9.432484801476688e-09  0.
-4.869830976085123e-14 9.432449479730021e-09  0.
-1.9112357047584943e-13 9.432302291064942e-09  0.
-6.581992791346192e-13 9.431766062559386e-09  0.
-2.0074702098927976e-12 9.430042516152861e-09  0.
-5.471670729448657e-12 9.425109782488092e-09  0.
-1.3440686092274112e-11 9.412428732564878e-09  0.
-2.997643530810299e-11 9.382915101158743e-09  0.
-6.110003972547804e-11 9.320296656587759e-09  0.
-1.1446130648282781e-10 9.198452878768472e-09  0.
-1.9804443107699819e-10 8.979881484097698e-09  0.
-3.1781500248275743e-10 8.61678746916919e-09  0.
-4.747616098593739e-10 8.056086331114156e-09  0.
-6.626240549315509e-10 7.249062499583501e-09  0.
-8.735070972881699e-10 6.171295798527591e-09  0.
-1.1953068314617462e-09 4.947988872820766e-09  0.
-3.0048873019958833e-09 5.302107292087312e-09  0.
0.0 4.685410863471013e-08  0.
-1.380071231835369e-16 4.685410857052601e-08  0.
-1.0261157946084828e-15 4.685410800683738e-08  0.
-6.5632561653568136e-15 4.685410416256606e-08  0.
-3.6393064923753956e-14 4.685408143678974e-08  0.
-1.7469027737832098e-13 4.685396515980124e-08  0.
-7.274815804442875e-13 4.6853449936654006e-08  0.
-2.6444374104458417e-12 4.6851463333032655e-08  0.
-8.46271795882646e-12 4.6844744599375725e-08  0.
-2.4056649048356064e-11 4.682463473171268e-08  0.
-6.127703231984907e-11 4.677088809604866e-08  0.
-1.4096689318573264e-10 4.6641559570445624e-08  0.
-2.949584426491026e-10 4.635929558795981e-08  0.
-5.648154692481016e-10 4.5796860162720156e-08  0.
-9.951889967636631e-10 4.4767813913787056e-08  0.
-1.6210432764614187e-09 4.30303705028066e-08  0.
-2.4511574246523807e-09 4.031174132361927e-08  0.
-3.4557833109568994e-09 3.635823973995681e-08  0.
-4.603478866141902e-09 3.104984408242116e-08  0.
-6.4099944088420105e-09 2.5120669173902403e-08  0.
-1.558658530485728e-08 2.7277173356252094e-08  0.
0.0 1.955317884778607e-07  0.
-3.5315679156148675e-16 1.955317883267947e-07  0.
-2.760759033575013e-15 1.9553178694000487e-07  0.
-1.864367821466542e-14 1.9553177696455132e-07  0.
-1.0938720282567677e-13 1.9553171458736624e-07  0.
-5.557761347790991e-13 1.9553137663558477e-07  0.
-2.444722026796418e-12 1.9552979285601874e-07  0.
-9.344839846849368e-12 1.9552335914119116e-07  0.
-3.1265757547957905e-11 1.9550056516229152e-07  0.
-9.238107653142797e-11 1.9542951919246378e-07  0.
-2.4318029034518736e-10 1.9523296083349463e-07  0.
-5.751432004590342e-10 1.9474602081922396e-07  0.
-1.2313032739617038e-09 1.9365734686968582e-07  0.
-2.402376232886767e-09 1.9144504442032216e-07  0.
-4.296950078075592e-09 1.8733327310985754e-07  0.
-7.0831050744128544e-09 1.8030468425879868e-07  0.
-1.0811291509691728e-08 1.6920184789469706e-07  0.
-1.536315530782228e-08 1.5294681616424373e-07  0.
-2.0665380768580424e-08 1.311065351615181e-07  0.
-2.9315737037275678e-08 1.0741432734552492e-07  0.
-6.836780576749123e-08 1.1860796094633389e-07  0.
0.0 6.731988630407525e-07  0.
-8.278143315667436e-16 6.731988627166266e-07  0.
-6.762638317097843e-15 6.731988596221734e-07  0.
-4.7907898746177675e-14 6.731988362974117e-07  0.
-2.9553112217334694e-13 6.731986830513918e-07  0.
-1.580002473800077e-12 6.731978094565746e-07  0.
-7.303795231776161e-12 6.731935043764274e-07  0.
-2.92296534947076e-11 6.731751714665446e-07  0.
-1.0180896444846033e-10 6.731074565862443e-07  0.
-3.1119006758130687e-10 6.728888985783768e-07  0.
-8.424069817381678e-10 6.722667283716167e-07  0.
-2.0374496534277584e-09 6.706904366438538e-07  0.
-4.4391968446165266e-09 6.671051754508385e-07  0.
-8.776542423514845e-09 6.597280178391097e-07  0.
-1.5850161721337342e-08 6.458992565402848e-07  0.
-2.6301690561178875e-08 6.221365821373508e-07  0.
-4.032874545509253e-08 5.845018242233391e-07  0.
-5.7532242712041386e-08 5.294139105955795e-07  0.
-7.8019416349754e-08 4.5602911520619943e-07  0.
-1.128431574260017e-07 3.8059841729684527e-07  0.
-2.4961078800430036e-07 4.2937831374453547e-07  0.
0.0 1.8712367586110948e-06  0.
-1.7850207885223004e-15 1.8712367579754599e-06  0.
-1.5156348962045383e-14 1.8712367516946595e-06  0.
-1.1197373075465434e-13 1.8712367023759155e-06  0.
-7.218965738053017e-13 1.871236363980187e-06  0.
-4.03781386731745e-12 1.8712343464965138e-06  0.
-1.9513370006070445e-11 1.8712239502550457e-06  0.
-8.138459278350643e-11 1.8711777750034967e-06  0.
-2.9379504785084475e-10 1.8710008242709353e-06  0.
-9.243517316600882e-10 1.8704125716775583e-06  0.
-2.557995142996852e-09 1.868701379466141e-06  0.
-6.284929146212733e-09 1.8643033152603393e-06  0.
-1.3833360052335513e-08 1.8542223772498092e-06  0.
-2.7499685150146685e-08 1.8334345064780208e-06  0.
-4.974075592036274e-08 1.794567047296943e-06  0.
-8.242539132711129e-08 1.7281985549367304e-06  0.
-1.2598019892169443e-07 1.6240552895753719e-06  0.
-1.792697396305158e-07 1.473569630450812e-06  0.
-2.44394372163622e-07 1.2784093583335889e-06  0.
-3.602871447141646e-07 1.0980079101534409e-06  0.
-7.449768688933938e-07 1.2730381140579514e-06  0.
0.0 4.1051228581108686e-06  0.
-3.5498384575650605e-15 4.105122856972456e-06  0.
-3.117399328976764e-14 4.105122845379395e-06  0.
-2.388973184457266e-13 4.105122751038502e-06  0.
-1.600734487117019e-12 4.105122078743215e-06  0.
-9.315767884050146e-12 4.105117910098893e-06  0.
-4.682346666975722e-11 4.105095567829576e-06  0.
-2.0258327509037222e-10 4.104992572062244e-06  0.
-7.546921716688866e-10 4.1045849275935114e-06  0.
-2.4323805293154583e-09 4.103196137413833e-06  0.
-6.840249013298629e-09 4.099094206679857e-06  0.
-1.6950504881951094e-08 4.0884883031101045e-06  0.
-3.7370547417096535e-08 4.064245113382045e-06  0.
-7.398819129207658e-08 4.014775402085788e-06  0.
-1.326466558862357e-07 3.923859988101013e-06  0.
-2.1711499552403877e-07 3.772121366219384e-06  0.
-3.2718238988208675e-07 3.5405465385944815e-06  0.
-4.600899424429709e-07 3.2175817664421254e-06  0.
-6.278489752791492e-07 2.8250979865255123e-06  0.
-9.405748464103256e-07 2.5409990084096053e-06  0.
-1.7842625781311806e-06 3.044797199437375e-06  0.
0.0 7.022158310524182e-06  0.
-6.5268201017444024e-15 7.022158308662246e-06  0.
-5.901623369014303e-14 7.022158289196985e-06  0.
-4.668297697010144e-13 7.022158125807455e-06  0.
-3.2343713258739042e-12 7.022156922532802e-06  0.
-1.948381730670109e-11 7.0221492023826645e-06  0.
-1.0135082966813433e-10 7.022106381717406e-06  0.
-4.5283489201852785e-10 7.0219024471978344e-06  0.
-1.7337499669057134e-09 7.021072324825549e-06  0.
-5.6996446327856665e-09 7.0181863716676625e-06  0.
-1.619916176317303e-08 7.009580074896834e-06  0.
-4.020299847790369e-08 6.9873695249521e-06  0.
-8.803978876899973e-08 6.937244211611389e-06  0.
-1.7183668399151477e-07 6.837344240870466e-06  0.
-3.0190932128325815e-07 6.659747446562146e-06  0.
-4.81915295224495e-07 6.375743004663248e-06  0.
-7.067817044244372e-07 5.964703837492124e-06  0.
-9.709715738239314e-07 5.432236671462397e-06  0.
-1.3191689968519445e-06 4.876913742758223e-06  0.
-1.989754260971365e-06 4.718722404163672e-06  0.
-3.389148161150641e-06 5.8420089358589414e-06  0.
0.0 9.627336398498787e-06  0.
-1.1144062275295806e-14 9.627336395703537e-06  0.
-1.0333447976242434e-13 9.627336365811462e-06  0.
-8.400037571305878e-13 9.627336108123844e-06  0.
-5.989879002040846e-12 9.627334155976716e-06  0.
-3.717326588016702e-11 9.627321257376959e-06  0.
-1.992009518133861e-10 9.62724756228775e-06  0.
-9.152450104772869e-10 9.626886533645232e-06  0.
-3.5878100633689045e-09 9.625380864602213e-06  0.
-1.1986661177931127e-08 9.62005821388305e-06  0.
-3.4274874530493274e-08 9.604100566340435e-06  0.
-8.465790047105172e-08 9.563266037609019e-06  0.
-1.8269668302777204e-07 9.473142665499977e-06  0.
-3.4831150885965235e-07 9.299736118554814e-06  0.
-5.932783771528811e-07 9.006003244647626e-06  0.
-9.130185398276623e-07 8.56423315576592e-06  0.
-1.2878383961500236e-06 7.974680106159934e-06  0.
-1.7136825493483155e-06 7.3066798242302e-06  0.
-2.3076142288224873e-06 6.839507032944939e-06  0.
-3.4361118429988547e-06 7.30753093273511e-06  0.
-5.169551650763756e-06 9.160894148305002e-06  0.
0.0 1.1690528441210396e-05  0.
-1.7763287739805735e-14 1.1690528437336939e-05  0.
-1.682998937355887e-13 1.1690528395108143e-05  0.
-1.4004060689139906e-12 1.1690528022732971e-05  0.
-1.0235074252659387e-11 1.1690525133120704e-05  0.
-6.516058825534976e-11 1.1690505556058424e-05  0.
-3.582153115509092e-10 1.1690390834827533e-05  0.
-1.6860115189725031e-09 1.1689815023302614e-05  0.
-6.744771894129956e-09 1.168736298610893e-05  0.
-2.2834133328777315e-08 1.1678573455957847e-05  0.
-6.547218829191447e-08 1.1652158962650703e-05  0.
-1.601526518146215e-07 1.1585457542468448e-05  0.
-3.3829221195048883e-07 1.1442634090287387e-05  0.
-6.251367197703894e-07 1.1180161042975968e-05  0.
-1.0236304202296637e-06 1.0761819340469773e-05  0.
-1.507927629150095e-06 1.0178627193158821e-05  0.
-2.0372385756590514e-06 9.478279789743343e-06  0.
-2.6353488404600042e-06 8.845555067102107e-06  0.
-3.5259371840764585e-06 8.817192216793538e-06  0.
-5.037673470634991e-06 1.0214981350251382e-05  0.
-6.735551592172557e-06 1.2342435742551338e-05  0.
0.0 1.406761743464103e-05  0.
-2.650332497504714e-14 1.4067617429712171e-05  0.
-2.557269388178428e-13 1.4067617375090283e-05  0.
-2.170261996718014e-12 1.4067616884108751e-05  0.
-1.6195642674493868e-11 1.4067612995798077e-05  0.
-1.0536099802580865e-10 1.4067586087579284e-05  0.
-5.919330120539725e-10 1.406742497627494e-05  0.
-2.8439968867537625e-09 1.4066599414229105e-05  0.
-1.157640809009386e-08 1.4063020459717514e-05  0.
-3.962387734077398e-08 1.4050040117698576e-05  0.
-1.1368843893561999e-07 1.4011004452794673e-05  0.
-2.745368661223513e-07 1.391400132022773e-05  0.
-5.647329640626453e-07 1.3713726155760424e-05  0.
-1.0058508570138315e-06 1.3365362556561369e-05  0.
-1.5768122151325738e-06 1.2847447504827923e-05  0.
-2.2215690796827338e-06 1.2185953013918636e-05  0.
-2.9052555719698593e-06 1.1487556468845165e-05  0.
-3.728240138020412e-06 1.1079334052087982e-05  0.
-5.008834857587078e-06 1.1658478619135633e-05  0.
-6.722255397025304e-06 1.3506890657093815e-05  0.
-8.262094974702744e-06 1.5071871141256216e-05  0.
0.0 1.6632237886831916e-05  0.
-3.705241166185697e-14 1.663223788112611e-05  0.
-3.6294763568439286e-13 1.6632237817024448e-05  0.
-3.1308599597284427e-12 1.6632237231559093e-05  0.
-2.377035101600167e-11 1.663223251578645e-05  0.
-1.5743203937187477e-10 1.663219929922257e-05  0.
-9.005739919943525e-10 1.6631996812835874e-05  0.
-4.4017792320677155e-09 1.6630941086161478e-05  0.
-1.8179060696750604e-08 1.6626294910898975e-05  0.
-6.278408572187419e-08 1.6609277554024336e-05  0.
-1.8002936647144743e-07 1.655811046628999e-05  0.
-4.2851740459434426e-07 1.6433091063216805e-05  0.
-8.557678219644348e-07 1.618509366196991e-05  0.
-1.4642944172486707e-06 1.5779871530175135e-05  0.
-2.200301913567527e-06 1.5220590285615399e-05  0.
-2.991224203497107e-06 1.456609216727203e-05  0.
-3.869691444846467e-06 1.3987662749067264e-05  0.
-5.048111493117402e-06 1.393853170415748e-05  0.
-6.767066324883321e-06 1.5001021376341494e-05  0.
-8.531705108085682e-06 1.646067549589077e-05  0.
-9.897612307820333e-06 1.721948887451889e-05  0.
0.0 1.886429917064075e-05  0.
-4.8638439633529326e-14 1.8864299164669956e-05  0.
-4.822488442287526e-13 1.8864299096859243e-05  0.
-4.21481740858555e-12 1.886429846961798e-05  0.
-3.244604166305994e-11 1.886429334889988e-05  0.
-2.1800566623647248e-10 1.88642567692308e-05  0.
-1.2653193095576914e-09 1.8864030565236785e-05  0.
-6.270828485232608e-09 1.8862834703559567e-05  0.
-2.620371647878899e-08 1.885750779196348e-05  0.
-9.114649387254411e-08 1.8837843057204616e-05  0.
-2.610245831913019e-07 1.8778755247104875e-05  0.
-6.12429389110031e-07 1.863669080892876e-05  0.
-1.1866034534701659e-06 1.8366001070358764e-05  0.
-1.9492548582778845e-06 1.79524555041607e-05  0.
-2.8251857645662404e-06 1.7423808525181918e-05  0.
-3.7738241311698286e-06 1.6853412094071892e-05  0.
-4.922627205355817e-06 1.6476534458247918e-05  0.
-6.532512920367266e-06 1.679229103027662e-05  0.
-8.419604333058531e-06 1.7967801192715968e-05  0.
-1.0030798032458459e-05 1.8771548532015837e-05  0.
-1.1197491606974682e-05 1.9401413016776066e-05  0.
0.0 2.131120653467714e-05  0.
-6.003303012316422e-14 2.1311206529165802e-05  0.
-6.007877502023858e-13 2.1311206466045158e-05  0.
-5.303850317855271e-12 2.1311205876444263e-05  0.
-4.126535383393854e-11 2.1311201012788076e-05  0.
-2.803426281965826e-10 2.1311165890470987e-05  0.
-1.6454004582544302e-09 2.1310946284694098e-05  0.
-8.242084967315177e-09 2.1309772776358416e-05  0.
-3.4755189587011375e-08 2.1304496073722507e-05  0.
-1.2155837482611916e-07 2.1284896539738263e-05  0.
-3.476506476786829e-07 2.122604073821477e-05  0.
-8.05345427260824e-07 2.1086459422792775e-05  0.
-1.51762364590293e-06 2.0830055209484515e-05  0.
-2.400731137066743e-06 2.046351019918025e-05  0.
-3.3888211076943778e-06 2.003029402286182e-05  0.
-4.534350360603472e-06 1.959992957901403e-05  0.
-5.974898502402701e-06 1.944120042564963e-05  0.
-7.806479176741215e-06 1.9979366097041347e-05  0.
-9.4569945782894e-06 2.081808767132598e-05  0.
-1.0742006371215445e-05 2.1194976756403567e-05  0.
-1.2033222084862207e-05 2.209767153516112e-05  0.
0.0 2.3689312164412185e-05  0.
-6.972139019580643e-14 2.3689312160157193e-05  0.
-7.023457140589756e-13 2.3689312111134748e-05  0.
-6.244570718815489e-12 2.3689311650037895e-05  0.
-4.8950161823395284e-11 2.3689307818328125e-05  0.
-3.351567353122331e-10 2.368927993434168e-05  0.
-1.9827208615262877e-09 2.368910421124862e-05  0.
-1.0007289624689311e-08 2.3688157980231128e-05  0.
-4.247197091130739e-08 2.368387441532946e-05  0.
-1.4912868991820444e-07 2.3667891995200636e-05  0.
-4.260211032890972e-07 2.3619914759336085e-05  0.
-9.77166308720496e-07 2.350727955714514e-05  0.
-1.8007870332869198e-06 2.330623718668474e-05  0.
-2.7627296659902766e-06 2.3035031394107693e-05  0.
-3.8359374487441535e-06 2.2738569719573345e-05  0.
-5.1926575289599165e-06 2.2469720539107632e-05  0.
-6.821250787724107e-06 2.245658433853859e-05  0.
-8.503537292335992e-06 2.2955048963658892e-05  0.
-9.955034247120482e-06 2.3385376774458503e-05  0.
-1.1127432991244349e-05 2.3581890422493168e-05  0.
-1.2540067487741627e-05 2.4224532475916418e-05  0.
0.0 2.605996370237673e-05  0.
-7.625085692033123e-14 2.6059963700051152e-05  0.
-7.711356975150056e-13 2.6059963673163873e-05  0.
-6.885233756664711e-12 2.6059963419238425e-05  0.
-5.421398796353047e-11 2.6059961300018343e-05  0.
-3.7292913016710964e-10 2.6059945808500325e-05  0.
-2.216599222001728e-09 2.6059847732431882e-05  0.
-1.1238482723437568e-08 2.6059317245357313e-05  0.
-4.788204394409434e-08 2.605690626850073e-05  0.
-1.6851837178597137e-07 2.6047887332044274e-05  0.
-4.810655763411975e-07 2.602082173509699e-05  0.
-1.0965642027076805e-06 2.595768169301952e-05  0.
-1.99194355536469e-06 2.5847063096813515e-05  0.
-2.995434302803297e-06 2.5703730898559596e-05  0.
-4.122288801196696e-06 2.5556854412109627e-05  0.
-5.6345484114841695e-06 2.5437089837803697e-05  0.
-7.3229763756027965e-06 2.5460437132880088e-05  0.
-8.766592726658923e-06 2.5709436303681674e-05  0.
-1.0217945270372572e-05 2.593860767737989e-05  0.
-1.1542130539132268e-05 2.6066233707235375e-05  0.
-1.2779752982220183e-05 2.6158824757333005e-05  0.
0.0 2.8449999999999922e-05  0.
-7.855825391573502e-14 2.8449999999999922e-05  0.
-7.955045488281682e-13 2.8449999999999922e-05  0.
-7.112791922734892e-12 2.8449999999999922e-05  0.
-5.608891804744509e-11 2.8449999999999922e-05  0.
-3.8642294830144355e-10 2.8449999999999922e-05  0.
-2.300400457904197e-09 2.8449999999999922e-05  0.
-1.168091385047296e-08 2.8449999999999922e-05  0.
-4.983102983429731e-08 2.8449999999999922e-05  0.
-1.7551398886184427e-07 2.8449999999999922e-05  0.
-5.009111043036833e-07 2.8449999999999922e-05  0.
-1.1393772305439392e-06 2.8449999999999922e-05  0.
-2.0594619777830413e-06 2.8449999999999922e-05  0.
-3.0755245596565927e-06 2.8449999999999922e-05  0.
-4.220486063851532e-06 2.8449999999999922e-05  0.
-5.7868937206077645e-06 2.8449999999999922e-05  0.
-7.483282756379013e-06 2.8449999999999922e-05  0.
-8.847016393380072e-06 2.8449999999999922e-05  0.
-1.0302683025075855e-05 2.8449999999999922e-05  0.
-1.1714823456670407e-05 2.8449999999999922e-05  0.
-1.2863955183440275e-05 2.8449999999999922e-05  0.
</DataArray>
<DataArray type="Float64" Name="sigma_xx" NumberOfComponents="1" format="ascii" >
16.040390793392582 
16.040386807691924 
16.040365236058555 
16.04028208035401 
16.039998185224384 
16.039126604638902 
16.036700323240886 
16.030531269084484 
16.01611117063583 
15.984928658507862 
15.922230955922593 
15.80449777716097 
15.597253666399519 
15.254166008116238 
14.718536744950933 
13.928062603252295 
12.823008266327204 
11.355177520488976 
9.461946093303194 
6.34854824266284 
4.298723066398222 
85.11183637871508 
85.1118247102711 
85.1117575750848 
85.111478204114 
85.11045779813206 
85.10713946363599 
85.09742325246702 
85.07159609538736 
85.0088003545579 
84.86822240527655 
84.57682073581549 
84.0148103753435 
83.00211055689563 
81.29114277832802 
78.57250018394876 
74.49926793245962 
68.73172848642636 
60.99063251108203 
50.95336166882623 
35.190959959963116 
25.072391268698965 
662.5949670158169 
662.5949158844955 
662.5946020855088 
662.5931978254671 
662.5877201404949 
662.5688220962542 
662.5105740176715 
662.3486707379998 
661.9395101770118 
660.9924643241613 
658.972234013344 
654.9788118870301 
647.6299346414025 
634.9892352347506 
614.5962093556666 
583.6486002386285 
539.3570142925295 
479.37140143228237 
400.8908603553295 
276.9129542362635 
197.24586262093158 
4447.772903859446 
4447.772706139828 
4447.771420335032 
4447.765259979474 
4447.739635521362 
4447.645968880252 
4447.342157148924 
4446.459458629091 
4444.141729015304 
4438.598520511981 
4426.438715857127 
4401.825809158265 
4355.6154621537935 
4274.779789720239 
4142.5176096177 
3939.434559960263 
3645.9464913124452 
3245.1304586816877 
2715.508242848163 
1868.4409517855097 
1321.8911354140323 
25738.524858742723 
25738.524178964268 
25738.519512530358 
25738.495680738262 
25738.39025766799 
25737.98265004811 
25736.59318125253 
25732.37786752668 
25720.891974043137 
25692.544259953145 
25628.694644103103 
25496.574237984783 
25243.953846396096 
24795.367932187164 
24052.355523890285 
22900.078002649476 
21221.281712452404 
18912.090851774803 
15830.079964052049 
10836.17958844984 
7600.384409034429 
126660.69756495087 
126660.6954679061 
126660.68033553852 
126660.5983808677 
126660.21442443438 
126658.64906132301 
126653.05617352013 
126635.38514884327 
126585.5531682569 
126459.00367923008 
126167.23945393089 
125552.07569597822 
124358.29677647499 
122213.94243011603 
118630.82984934212 
113037.09210390697 
104845.72126057686 
93523.8362839541 
78265.39770942052 
53204.70173800493 
36897.28411231939 
521143.83859319636 
521143.8327363647 
521143.7885278223 
521143.5360235104 
521142.28917880513 
521136.9498460626 
521117.024710943 
521051.706727879 
520861.8448607537 
520367.9718442737 
519208.1675680913 
516729.776050273 
511875.840380374 
503107.45749574655 
488413.56799234333 
465454.39766609843 
431840.8950780893 
385350.1279083375 
322144.49438997806 
216910.6725821767 
148153.1937938484 
1754466.0661080175 
1754466.051196884 
1754465.9340134156 
1754465.232021812 
1754461.5967544636 
1754445.3151292214 
1754382.0976677858 
1754167.9690248773 
1753529.602180381 
1751838.4809984849 
1747820.4796491032 
1739183.5947579225 
1722254.2431370993 
1691773.2697098698 
1641027.1124446648 
1562419.0002329503 
1448398.394648925 
1291727.164979647 
1077277.0581314228 
715590.3092924046 
478453.67132560693 
4696631.595603272 
4696631.560819756 
4696631.277466072 
4696629.506520176 
4696619.936674206 
4696575.305405714 
4696395.712866506 
4695769.780531618 
4693865.744505362 
4688762.149563101 
4676591.391456273 
4650526.206589318 
4599959.414115591 
4510365.680084353 
4364258.616557024 
4143257.876061039 
3830442.524840326 
3408650.1946390863 
2829261.362964046 
1841681.089461802 
1193015.1408578441 
9627378.681721529 
9627378.607118323 
9627377.979785942 
9627373.90962858 
9627351.069686923 
9627240.641743224 
9626781.955206985 
9625143.525873557 
9620083.269223267 
9606450.862683047 
9574099.645456698 
9505825.534649977 
9376495.272551477 
9154709.90990386 
8807375.108925793 
8306046.001940534 
7630544.822795862 
6755050.2890820475 
5553596.279846776 
3497666.7414338817 
2150982.5594330886 
14460378.463782003 
14460378.316234458 
14460377.040477296 
14460368.487988317 
14460318.87940485 
14460071.292635325 
14459013.778983058 
14455156.51505988 
14443114.164414586 
14410711.689900849 
14334857.489686906 
14178905.711385222 
13894808.970028762 
13432369.707821792 
12754451.652510233 
11850755.759925306 
10736183.207395948 
9392998.938165661 
7558201.1382614635 
4471953.79256947 
2484309.3172643473 
15505026.774972202 
15505026.504766945 
15505024.110919168 
15505007.598703694 
15504909.009305637 
15504403.087250866 
15502188.662604015 
15493966.312296491 
15468106.986914579 
15398973.128769826 
15240610.618217824 
14927026.257864084 
14386226.589635085 
13568574.822709186 
12480012.206493877 
11196759.51803331 
9828699.908856647 
8360632.615837604 
6341441.95253519 
3223077.028224156 
1347426.8829760803 
13102358.641959239 
13102358.181459367 
13102354.014379492 
13102324.549646256 
13102144.135903565 
13101195.515031643 
13096953.376980484 
13080957.760092054 
13030400.505004022 
12896602.646416973 
12598777.678924859 
12036998.579067172 
11134320.470910374 
9896893.235919235 
8453113.324226843 
7031563.0264674695 
5813455.909344302 
4641776.9510262385 
2872394.86176534 
791386.4798989231 
-146073.3467871369 
12460527.185711574 
12460526.452716453 
12460519.697493833 
12460470.901960395 
12460165.555177592 
12458525.805494778 
12451054.865299031 
12422508.465842972 
12331982.601395216 
12095409.317757148 
11586617.385375202 
10682570.891386485 
9352400.924573522 
7744449.668964565 
6176386.182571997 
4981298.203912274 
4193382.7285161186 
3221126.3697264045 
1420572.2439245037 
10504.88090391396 
-251909.63703482802 
13871024.089234669 
13871022.997385535 
13871012.777780728 
13870937.61094066 
13870458.481712304 
13867838.91026458 
13855712.201840036 
13808853.378206551 
13659954.059002478 
13276243.152605703 
12482335.96830289 
11168565.835490242 
9434430.7450818 
7645729.907960715 
6277318.367315345 
5518449.7798492545 
4937710.842489174 
3507907.049443229 
1261315.1166649102 
-95793.0528421576 
-292010.07100537996 
13463074.723080289 
13463073.198078008 
13463058.739151336 
13462950.784000067 
13462252.026182784 
13458374.144623864 
13440182.054923667 
13369227.443619054 
13143497.307419531 
12569980.101899778 
11430691.613154873 
9692469.570870336 
7683524.041789359 
5978410.584083246 
5004368.597727226 
4482398.197064383 
3414656.837262137 
1176748.6008920665 
-870937.3821142145 
-1066978.0581719042 
-632353.2601558894 
13131826.177922629 
13131824.177389674 
13131805.011737442 
13131660.174292628 
13130711.025511244 
13125379.521028401 
13100096.884549256 
13000738.945455018 
12684439.399517164 
11891321.151791658 
10377238.389638666 
8261335.963160878 
6179629.603364266 
4776157.930133956 
4080084.282711121 
3300675.43000527 
1357326.6420087633 
-945588.8023166684 
-1660059.0995583306 
-454500.40065331187 
543637.7236931946 
13542635.442762382 
13542632.975070544 
13542609.144324087 
13542427.372181596 
13541224.806883872 
13534406.687380202 
13501804.042547103 
13372929.981077729 
12962528.095795203 
11944955.207130527 
10070513.748402402 
7671116.128287902 
5718972.187069079 
4701219.456018732 
3907017.6705511576 
2503940.7282005595 
301145.95951023255 
-977687.549085154 
-251074.5012865326 
292489.80922160554 
124743.84061289881 
13328090.40743222 
13328087.542446945 
13328059.718094371 
13327846.085271185 
13326423.193881754 
13318302.525217315 
13279241.117924446 
13124195.310434498 
12630369.104499325 
11416390.656751305 
9242753.446144622 
6667343.617348836 
4961441.269271176 
4274162.498557809 
3029096.2031566584 
1041587.5277238642 
-330007.2921946778 
-543047.3016528486 
403686.7931658532 
-101659.20982381993 
-1363799.0107690974 
13361655.49781075 
13361652.365156174 
13361621.838407258 
13361386.53662832 
13359813.01501242 
13350797.237362264 
13307276.619793976 
13134101.86440762 
12582494.9426849 
11233699.317872867 
8862435.856693123 
6200554.339505481 