<?xml version="1.0"?>
<VTKFile type="UnstructuredGrid" version="0.1" byte_order="LittleEndian" compressor="vtkZLibDataCompressor">
<UnstructuredGrid>
<Piece NumberOfPoints="441" NumberOfCells="400">
<PointData>
<DataArray type="Float64" Name="displacement" NumberOfComponents="3" format="ascii" >
0.0 7.073303415478113e-19  0.
4.668510697389518e-23 7.100088387063188e-19  0.
-5.760564766724336e-25 7.100508105972018e-19  0.
-8.073027905578025e-26 7.10050117199697e-19  0.
-1.3040934905948334e-25 7.100501086296622e-19  0.
-3.2062584157951447e-25 7.100499553367716e-19  0.
-1.3648664230103844e-24 7.1004933743556e-19  0.
-1.5563669372976724e-23 7.100362218074434e-19  0.
-7.621875755870883e-22 7.094723356605682e-19  0.
-4.60601966454231e-22 7.072103501439985e-19  0.
-1.1538704144155956e-21 7.062684699888758e-19  0.
-2.4348008821447487e-21 7.017703791116618e-19  0.
-3.996013132443317e-21 6.954494541196917e-19  0.
-5.98030307342559e-21 6.887963356646477e-19  0.
-1.488783399583523e-20 6.707057702304491e-19  0.
-2.224416769795076e-20 6.352219576556506e-19  0.
-3.109575179571691e-20 5.814641881603683e-19  0.
-3.6164128493912674e-20 5.196771351491437e-19  0.
-5.004917769117574e-20 4.4006891014336665e-19  0.
-6.089320902115506e-20 3.3798959645463e-19  0.
-1.7171116554819019e-19 3.3973742323080433e-19  0.
0.0 8.469096521713435e-18  0.
-8.047903351839784e-23 8.470820122733057e-18  0.
-3.1609221323676448e-24 8.470828461419015e-18  0.
-3.676795467893211e-24 8.470823476474855e-18  0.
-1.524571352969279e-23 8.470821884972116e-18  0.
-1.6368686679599826e-23 8.470826996220793e-18  0.
-1.8074047797095862e-22 8.470690958358916e-18  0.
-3.0572290953974344e-22 8.469971412024947e-18  0.
-2.602667393252625e-21 8.46839731614634e-18  0.
-6.017491007854714e-21 8.457992029596554e-18  0.
-1.48400352767843e-20 8.438996015501144e-18  0.
-2.733311647126444e-20 8.403759837688925e-18  0.
-5.256447628353742e-20 8.332126432715182e-18  0.
-9.380276381840771e-20 8.194851796024553e-18  0.
-1.5742416703116914e-19 7.961644311324925e-18  0.
-2.4043166757881325e-19 7.59963250311112e-18  0.
-3.4442088729441545e-19 7.059860619517196e-18  0.
-4.642126710609335e-19 6.327881310215486e-18  0.
-5.911998995724944e-19 5.348674691264824e-18  0.
-7.542012613298493e-19 4.198251872599455e-18  0.
-2.2652697651723855e-18 4.2641087715681885e-18  0.
0.0 1.7423612870573956e-16  0.
-4.470442717033389e-22 1.7422992766140665e-16  0.
-2.4424575362769444e-22 1.7422841435647536e-16  0.
-9.896436698563712e-24 1.742282423981269e-16  0.
-4.538596015815667e-22 1.742278541957285e-16  0.
-5.78282725170764e-22 1.7422591040350947e-16  0.
-2.6864659051773535e-21 1.7422295444878782e-16  0.
-1.0911354120509503e-20 1.7420961655167958e-16  0.
-3.597000642425959e-20 1.741701469632066e-16  0.
-9.940324953299846e-20 1.7405498391634833e-16  0.
-2.40858367757222e-19 1.7375400475211003e-16  0.
-5.058944111495777e-19 1.730810431101173e-16  0.
-9.927571340406375e-19 1.71738938807026e-16  0.
-1.8118947454297943e-18 1.6921453287217093e-16  0.
-3.0523597101141064e-18 1.6483300090841094e-16  0.
-4.785720973809031e-18 1.57755831421557e-16  0.
-7.017104026802548e-18 1.470676160933622e-16  0.
-9.63242625615898e-18 1.3197492910393926e-16  0.
-1.2432185806970511e-17 1.1199588397422663e-16  0.
-1.5988464001087802e-17 8.802722749660904e-17  0.
-4.8083146163331874e-17 8.973806644847538e-17  0.
0.0 3.199475762050743e-15  0.
-2.4276752375186408e-21 3.199476423391645e-15  0.
-8.38407603877026e-22 3.199473794762578e-15  0.
-7.083581964913118e-23 3.199473037925169e-15  0.
-9.900164901026066e-22 3.1994728271921417e-15  0.
-7.379097996288148e-21 3.1994662756215713e-15  0.
-4.3420476680916317e-20 3.19941944711741e-15  0.
-1.5632818425909897e-19 3.1992509526556354e-15  0.
-5.0038789812626305e-19 3.1986846853372827e-15  0.
-1.4114546428796112e-18 3.1970316791151007e-15  0.
-3.5357341365163724e-18 3.1927263684190975e-15  0.
-7.955188098279943e-18 3.182643193784117e-15  0.
-1.629173919492365e-17 3.1612393427218527e-15  0.
-3.0646557027215106e-17 3.1196209749931525e-15  0.
-5.311726947568632e-17 3.0451153380230137e-15  0.
-8.530453872620726e-17 2.921606175779494e-15  0.
-1.2745928373950747e-16 2.7313387819970757e-15  0.
-1.7769798205549273e-16 2.457953029125182e-15  0.
-2.323155815780076e-16 2.0912472723583323e-15  0.
-3.0244378869061213e-16 1.6480558138484924e-15  0.
-9.055402130032354e-16 1.6858117483879296e-15  0.
0.0 5.198627172559739e-14  0.
-4.543719940448683e-21 5.198626820836092e-14  0.
-6.219135191324066e-22 5.198627057448447e-14  0.
-4.545682289073471e-22 5.198627055695821e-14  0.
-7.904955209504638e-21 5.198626305358781e-14  0.
-7.210185570766988e-20 5.1986201074521125e-14  0.
-3.836682185725585e-19 5.198584923604476e-14  0.
-1.6124060506248398e-18 5.198422369278513e-14  0.
-5.648035852582428e-18 5.1978180785477736e-14  0.
-1.715727202726938e-17 5.195895746414462e-14  0.
-4.5734209681284823e-17 5.190531499806447e-14  0.
-1.0878017108481049e-16 5.1772361012912985e-14  0.
-2.3327892192041587e-16 5.147596709511888e-14  0.
-4.553243145773879e-16 5.087591228974463e-14  0.
-8.142373634014141e-16 4.9764634575611424e-14  0.
-1.3419967363377143e-15 4.787032066735539e-14  0.
-2.0474611602517375e-15 4.488393244324632e-14  0.
-2.90307279079188e-15 4.051271960925182e-14  0.
-3.846490459765461e-15 3.4563802667095204e-14  0.
-5.075130614192915e-15 2.7320156795074088e-14  0.
-1.5113413707289616e-14 2.8053975377295935e-14  0.
0.0 7.411910193858092e-13  0.
-1.781950737213387e-21 7.411910213890443e-13  0.
-6.988625515613911e-22 7.411910223085958e-13  0.
-2.6631935417631097e-21 7.411910196564434e-13  0.
-5.480517412390384e-20 7.411909753615123e-13  0.
-4.485460217134406e-19 7.411906182028511e-13  0.
-2.772085121818624e-18 7.411882160408689e-13  0.
-1.3362886717749551e-17 7.41175697411871e-13  0.
-5.2863312434475875e-17 7.411227724694537e-13  0.
-1.759034679865101e-16 7.409360397257189e-13  0.
-5.062528248210915e-16 7.403704202645205e-13  0.
-1.2804994143410058e-15 7.388711416703173e-13  0.
-2.891177880643922e-15 7.353379160173656e-13  0.
-5.884302666827623e-15 7.278510944035923e-13  0.
-1.0896371729064878e-14 7.134512505319718e-13  0.
-1.8474331493883032e-14 6.881311068650258e-13  0.
-2.884594360682523e-14 6.471871636989137e-13  0.
-4.1656036202507546e-14 5.860212696717501e-13  0.
-5.601089516359018e-14 5.014594659577805e-13  0.
-7.500812706853095e-14 3.977090817006791e-13  0.
-2.2178661325130261e-13 4.1026046996575277e-13  0.
0.0 9.184111849436077e-12  0.
-8.874258812726111e-21 9.18411184091359e-12  0.
-8.247067906471614e-22 9.184111837515293e-12  0.
-1.5013236416961005e-20 9.184111826403458e-12  0.
-2.3763360406966604e-19 9.184111676744914e-12  0.
-2.1489116315344647e-18 9.184110146717649e-12  0.
-1.5634017231001878e-17 9.184097984465703e-12  0.
-8.96667359837522e-17 9.184021344609993e-12  0.
-4.0429649484636946e-16 9.183646547904945e-12  0.
-1.5042259692595808e-15 9.182153506630024e-12  0.
-4.719199975109942e-15 9.177177854631688e-12  0.
-1.283090554177969e-14 9.162913814412098e-12  0.
-3.067940746898991e-14 9.127108384368645e-12  0.
-6.550053754137802e-14 9.047190735481853e-12  0.
-1.2603418582264807e-13 8.886836521653303e-12  0.
-2.205562466583634e-13 8.5949371843004e-12  0.
-3.531419037557981e-13 8.10951165374376e-12  0.
-5.203614965088628e-13 7.367908618748193e-12  0.
-7.109214123001308e-13 6.3250041498292645e-12  0.
-9.681003581933394e-13 5.0359830252726835e-12  0.
-2.8354616374802045e-12 5.223346495644984e-12  0.
0.0 9.780686476563917e-11  0.
-1.3775241021295555e-20 9.78068647757034e-11  0.
1.920475433464104e-21 9.780686478204802e-11  0.
-6.342204772980084e-20 9.780686474433255e-11  0.
-8.339193009734337e-19 9.780686425332124e-11  0.
-8.489138154410372e-18 9.780685883977236e-11  0.
-7.085182375005077e-17 9.780680945848769e-11  0.
-4.739279916141999e-16 9.780644663999984e-11  0.
-2.5064230349418527e-15 9.78043350316132e-11  0.
-1.0523865614072683e-14 9.77947062833012e-11  0.
-3.663304934045822e-14 9.775874842005256e-11  0.
-1.078839418996223e-13 9.764604550937051e-11  0.
-2.758121127684666e-13 9.734166492928252e-11  0.
-6.20641691155022e-13 9.662130808819737e-11  0.
-1.2473970762551238e-12 9.510515706018353e-11  0.
-2.259155798299862e-12 9.223709614429452e-11  0.
-3.719634920509322e-12 8.731755579211969e-11  0.
-5.600789102814643e-12 7.961559695805498e-11  0.
-7.78760345489572e-12 6.858359854277345e-11  0.
-1.080410693313905e-11 5.4857252963965857e-11  0.
-3.1248356782699004e-11 5.7277438035806855e-11  0.
0.0 8.835813201055267e-10  0.
-2.1094349234387236e-21 8.83581320117282e-10  0.
-2.3297292463740056e-21 8.835813201095778e-10  0.
-1.9083851928937304e-19 8.835813200182797e-10  0.
-2.535627754084085e-18 8.835813186847456e-10  0.
-2.8457128036361454e-17 8.835813024277862e-10  0.
-2.657002157099142e-16 8.835811370044063e-10  0.
-2.023540633883942e-15 8.835797553369706e-10  0.
-1.2348668144520691e-14 8.835704750397012e-10  0.
-5.98670910036301e-14 8.835209181011673e-10  0.
-2.3271227765249506e-13 8.833114525288894e-10  0.
-7.534958218664129e-13 8.825824606878499e-10  0.
-2.0716805990246255e-12 8.804453496274696e-10  0.
-4.953323679537086e-12 8.750371258661124e-10  0.
-1.0434886445041193e-11 8.630330379469877e-10  0.
-1.9641045272762408e-11 8.393316502050937e-10  0.
-3.331290238297046e-11 7.972776036496977e-10  0.
-5.136459429907154e-11 7.296652870450827e-10  0.
-7.276987297282901e-11 6.309153165980324e-10  0.
-1.0311036937448294e-10 5.074398275434897e-10  0.
-2.9318993022674354e-10 5.341967121250794e-10  0.
0.0 6.667038598290319e-09  0.
-3.513250509404751e-22 6.667038598289379e-09  0.
-2.396479568032121e-20 6.6670385982749365e-09  0.
-4.798341880241111e-19 6.6670385980513256e-09  0.
-6.805159752867347e-18 6.667038594825962e-09  0.
-8.267794737236162e-17 6.667038552592431e-09  0.
-8.46568000661772e-16 6.66703808288257e-09  0.
-7.173447271550374e-15 6.667033733657775e-09  0.
-4.944135346284893e-14 6.667000770499745e-09  0.
-2.731667875856808e-13 6.666799929870034e-09  0.
-1.2052102022979972e-12 6.665823572121401e-09  0.
-4.307167113513072e-12 6.662026290738478e-09  0.
-1.2882694826785278e-11 6.649798365761476e-09  0.
-3.2852801073608343e-11 6.6164950987064535e-09  0.
-7.298869315043794e-11 6.538043489564815e-09  0.
-1.4306318864187398e-10 6.37576469981714e-09  0.
-2.506750102876329e-10 6.077047458708122e-09  0.
-3.9608288377526514e-10 5.583052618996746e-09  0.
-5.727006242243992e-10 4.846987440909948e-09  0.
-8.306266441400241e-10 3.9252766075669854e-09  0.
-2.3083374615821316e-09 4.175455787762705e-09  0.
0.0 4.124299074883681e-08  0.
-5.90579864338696e-21 4.1242990748832074e-08  0.
-6.162221143336817e-20 4.124299074881873e-08  0.
-1.0873495690774398e-18 4.1242990748388097e-08  0.
-1.630036058326896e-17 4.124299074149583e-08  0.
-2.11707229795545e-16 4.1242990645203555e-08  0.
-2.3387169521867635e-15 4.124298949354118e-08  0.
-2.163592256308073e-14 4.124297788658375e-08  0.
-1.6491346276170828e-13 4.124288090244792e-08  0.
-1.0194044431557002e-12 4.124221994891871e-08  0.
-5.053371196475213e-12 4.1238601452795595e-08  0.
-2.011752850081754e-11 4.12227382135798e-08  0.
-6.554654397854746e-11 4.1166484688654364e-08  0.
-1.7958336360959137e-10 4.1000371580207834e-08  0.
-4.214113455398912e-10 4.058361374828275e-08  0.
-8.631818130095395e-10 3.967723734203148e-08  0.
-1.562778445513571e-09 3.7943740131508405e-08  0.
-2.533297308737147e-09 3.499286545855021e-08  0.
-3.739187518584834e-09 3.051160141888605e-08  0.
-5.5665696743009174e-09 2.4931340455667077e-08  0.
-1.4988183019137254e-08 2.687921723027194e-08  0.
0.0 2.0449425611540978e-07  0.
-8.171347069075215e-21 2.0449425611541627e-07  0.
-1.266471326548529e-19 2.0449425611536907e-07  0.
-2.233304172336339e-18 2.0449425611459245e-07  0.
-3.523726434723935e-17 2.0449425610139154e-07  0.
-4.836342535327989e-16 2.0449425590669885e-07  0.
-5.689925531113859e-15 2.04494253433758e-07  0.
-5.658997420327276e-14 2.044942267201522e-07  0.
-4.686446337140003e-13 2.0449398488665755e-07  0.
-3.1808387093077667e-12 2.044921797300712e-07  0.
-1.7445249982183014e-11 2.044812394281603e-07  0.
-7.675650597212511e-11 2.0442804603813521e-07  0.
-2.729187250785083e-10 2.0422018965608748e-07  0.
-8.022928817383842e-10 2.0355590644011996e-07  0.
-1.9927253496061704e-09 2.0177780058711513e-07  0.
-4.260717017333116e-09 1.977135155466533e-07  0.
-7.970503473795282e-09 1.8964035072142097e-07  0.
-1.3229942808494726e-08 1.755222861005369e-07  0.
-1.9932343265016892e-08 1.5376072766832084e-07  0.
-3.0509063717625175e-08 1.2719541096470067e-07  0.
-7.862875719345628e-08 1.3960462743494904e-07  0.
0.0 7.904662696754748e-07  0.
-9.065463295639444e-21 7.904662696754773e-07  0.
-2.2682829773689963e-19 7.904662696754098e-07  0.
-4.210083268852912e-18 7.904662696741131e-07  0.
-6.921915879858817e-17 7.904662696513151e-07  0.
-9.948931650807006e-16 7.904662693000181e-07  0.
-1.233229133099227e-14 7.904662646097627e-07  0.
-1.3020138452118762e-13 7.904662109649876e-07  0.
-1.1543946676570478e-12 7.904656924771786e-07  0.
-8.463640603840329e-12 7.904615217898871e-07  0.
-5.0528473003068365e-11 7.904340509055425e-07  0.
-2.4267278202975494e-10 7.902880193642961e-07  0.
-9.353447186642213e-10 7.896666279212402e-07  0.
-2.9336708708869575e-09 7.875341412919916e-07  0.
-7.679061628968305e-09 7.814864638187803e-07  0.
-1.7068522074346886e-08 7.670389697302932e-07  0.
-3.284814393865646e-08 7.374099055728703e-07  0.
-5.558527913127464e-08 6.845445790841986e-07  0.
-8.52480685820112e-08 6.027403530803119e-07  0.
-1.341953196302935e-07 5.077905890646018e-07  0.
-3.251314381046981e-07 5.710084990883607e-07  0.
0.0 2.3052867960992068e-06  0.
-1.2328506060668176e-20 2.3052867960991983e-06  0.
-3.755739826476262e-19 2.3052867960990967e-06  0.
-7.29099233198567e-18 2.3052867960971434e-06  0.
-1.2418396253413732e-16 2.3052867960617027e-06  0.
-1.854142853724775e-15 2.3052867954955764e-06  0.
-2.39977915099046e-14 2.3052867876182263e-06  0.
-2.66123601646234e-13 2.305286693184199e-06  0.
-2.49519884228325e-12 2.3052857301877807e-06  0.
-1.948816449986347e-11 2.3052774971965648e-06  0.
-1.2478713898410342e-10 2.305219431986076e-06  0.
-6.453896308007625e-10 2.30488714533157e-06  0.
-2.6705542064000984e-09 2.3033649331942793e-06  0.
-8.87305129154932e-09 2.2978036769000988e-06  0.
-2.4174013248852942e-08 2.281364817358603e-06  0.
-5.540102753328816e-08 2.240873830732036e-06  0.
-1.0847990955228694e-07 2.156454954290747e-06  0.
-1.8567521646485297e-07 2.005203814196542e-06  0.
-2.8789961123551846e-07 1.7761335940028695e-06  0.
-4.6455114408161934e-07 1.5408482418931443e-06  0.
-1.029943418350679e-06 1.7907400094099392e-06  0.
0.0 4.922924774704301e-06  0.
-2.784322480977342e-20 4.922924774704278e-06  0.
-5.825608788052831e-19 4.922924774704149e-06  0.
-1.1641746709796747e-17 4.922924774701521e-06  0.
-2.0402182107713884e-16 4.922924774652203e-06  0.
-3.143105158898183e-15 4.922924773840471e-06  0.
-4.214580575544645e-14 4.922924762154241e-06  0.
-4.864897618157687e-13 4.922924616552635e-06  0.
-4.773491008688202e-12 4.922923065344133e-06  0.
-3.9245087963251314e-11 4.9229091300937596e-06  0.
-2.660575336860226e-10 4.922805231012693e-06  0.
-1.4627833356211933e-09 4.922173519640012e-06  0.
-6.429464033461443e-09 4.91909530051277e-06  0.
-2.2460675346643553e-08 4.907224208196443e-06  0.
-6.307821215717394e-08 4.870931984371232e-06  0.
-1.4650069515522408e-07 4.780926465335475e-06  0.
-2.8809412686263124e-07 4.594488055722511e-06  0.
-4.909228611255892e-07 4.269710858806243e-06  0.
-7.634401456989021e-07 3.813492064760454e-06  0.
-1.2455029474585732e-06 3.4769435735099715e-06  0.
-2.434748899529736e-06 4.212572431489896e-06  0.
0.0 7.736455151971802e-06  0.
-4.0675482645683116e-20 7.736455151971792e-06  0.
-8.467563241124486e-19 7.736455151971639e-06  0.
-1.718072003793087e-17 7.736455151968424e-06  0.
-3.0805157938565915e-16 7.736455151907204e-06  0.
-4.8680102092481256e-15 7.736455150873967e-06  0.
-6.716626040455729e-14 7.736455135582206e-06  0.
-8.007023426804938e-13 7.73645493902285e-06  0.
-8.148090726307292e-12 7.73645276990088e-06  0.
-6.97975172021728e-11 7.73643249197831e-06  0.
-4.953293030692273e-10 7.7362744116758e-06  0.
-2.86142254697685e-09 7.735264993038962e-06  0.
-1.3219721938474431e-08 7.730089578808903e-06  0.
-4.8196292618190894e-08 7.709186613055858e-06  0.
-1.3864881923725527e-07 7.64344647373321e-06  0.
-3.2188939906220395e-07 7.481069337412442e-06  0.
-6.251072972960085e-07 7.156155450669311e-06  0.
-1.0439747790750712e-06 6.630104101290664e-06  0.
-1.6105774398232676e-06 6.0179375008228625e-06  0.
-2.5867429383256925e-06 5.9488701613362284e-06  0.
-4.275935234208616e-06 7.466349849357295e-06  0.
0.0 9.9129145814442e-06  0.
-4.308328632784199e-20 9.912914581444203e-06  0.
-1.1450435961038422e-18 9.91291458144405e-06  0.
-2.3534857648456656e-17 9.912914581440552e-06  0.
-4.296772444018652e-16 9.912914581372764e-06  0.
-6.9280457299709764e-15 9.912914580206655e-06  0.
-9.776853375525107e-14 9.912914562570636e-06  0.
-1.195459557744732e-12 9.91291433030089e-06  0.
-1.2518080647368308e-11 9.91291169568258e-06  0.
-1.1073737994990829e-10 9.912886291884016e-06  0.
-8.145770248272339e-10 9.912681221876095e-06  0.
-4.893000515316847e-09 9.911320451331696e-06  0.
-2.3529694176139937e-08 9.904052707761113e-06  0.
-8.888580378369798e-08 9.873540487397021e-06  0.
-2.6091004298865264e-07 9.775089770892268e-06  0.
-6.016749867757188e-07 9.533645816378426e-06  0.
-1.1369416729401111e-06 9.077805104402276e-06  0.
-1.8531683869235359e-06 8.420686176056747e-06  0.
-2.797393202168291e-06 7.927581170061217e-06  0.
-4.278490865325731e-06 8.59642999168053e-06  0.
-5.90372404233936e-06 1.0584247684062991e-05  0.
0.0 1.2229532113364499e-05  0.
-5.3353344997563595e-20 1.2229532113364482e-05  0.
-1.4394557992669146e-18 1.2229532113364314e-05  0.
-3.000790222932744e-17 1.2229532113360997e-05  0.
-5.554571830226643e-16 1.2229532113295559e-05  0.
-9.0936787956579e-15 1.2229532112153391e-05  0.
-1.305399952803468e-13 1.2229532094594847e-05  0.
-1.6270697547849233e-12 1.2229531859058549e-05  0.
-1.7409182942412647e-11 1.2229529131688036e-05  0.
-1.5778596574129483e-10 1.2229502212340122e-05  0.
-1.1925195733817506e-09 1.2229279152980622e-05  0.
-7.378707836793509e-09 1.2227755139421632e-05  0.
-3.659615283473562e-08 1.221935648915877e-05  0.
-1.4223500686322514e-07 1.2182981386714884e-05  0.
-4.2495366653278003e-07 1.2062804460120521e-05  0.
-9.736456893173486e-07 1.1769335449005291e-05  0.
-1.7794020232814802e-06 1.1253893104095575e-05  0.
-2.825992075292345e-06 1.0650010075275258e-05  0.
-4.168409015589971e-06 1.054353135257485e-05  0.
-5.847497742013364e-06 1.1755765631037102e-05  0.
-7.223322030396604e-06 1.3141110900895684e-05  0.
0.0 1.474138620085065e-05  0.
-7.178704191897916e-20 1.4741386200850645e-05  0.
-1.7032042596140832e-18 1.4741386200850532e-05  0.
-3.5657811291398554e-17 1.4741386200847918e-05  0.
-6.663237952231306e-16 1.4741386200795878e-05  0.
-1.1025881471057321e-14 1.474138619987824e-05  0.
-1.6017932355186238e-13 1.4741386185606097e-05  0.
-2.023424808728116e-12 1.4741385991646116e-05  0.
-2.1978451150292138e-11 1.4741383712508363e-05  0.
-2.025967394378417e-10 1.4741360844538903e-05  0.
-1.5604030921393408e-09 1.4741167799602673e-05  0.
-9.857689245988438e-09 1.4739821398202674e-05  0.
-4.99756294412153e-08 1.4732231284757116e-05  0.
-1.9834573455475804e-07 1.469858028451255e-05  0.
-6.013089787990029e-07 1.4585191191242324e-05  0.
-1.3744323981640524e-06 1.430773989513936e-05  0.
-2.43891300380692e-06 1.3854508280553222e-05  0.
-3.735390971355713e-06 1.349106197694321e-05  0.
-5.366202414703085e-06 1.3761582739916205e-05  0.
-6.850349157796427e-06 1.4683566895113922e-05  0.
-8.255264489962104e-06 1.503868935225804e-05  0.
0.0 1.7039160092563772e-05  0.
-8.412803779475399e-20 1.7039160092563772e-05  0.
-1.8799754632961853e-18 1.703916009256371e-05  0.
-3.9510401243759767e-17 1.7039160092562265e-05  0.
-7.428222854713091e-16 1.7039160092533306e-05  0.
-1.2369690768024551e-14 1.7039160092019398e-05  0.
-1.8097790245186997e-13 1.70391600839728e-05  0.
-2.3043514031609233e-12 1.7039159973794788e-05  0.
-2.5253659394785262e-11 1.703915866821918e-05  0.
-2.351255504756019e-10 1.703914544272796e-05  0.
-1.8312934633439826e-09 1.703903259851597e-05  0.
-1.1712445488201148e-08 1.7038235935760856e-05  0.
-6.016433402213211e-08 1.7033684628310313e-05  0.
-2.4188673156525087e-07 1.7013214423895074e-05  0.
-7.406747843998336e-07 1.6943282418833606e-05  0.
-1.694502636561873e-06 1.6771665132219114e-05  0.
-2.948989936971128e-06 1.6506404678759982e-05  0.
-4.3215969998343445e-06 1.6382776866443876e-05  0.
-5.970894497394964e-06 1.670296409616002e-05  0.
-7.423211687715093e-06 1.6995436978800315e-05  0.
-8.663711143005436e-06 1.6986365020755727e-05  0.
0.0 1.945000000000001e-05  0.
-8.969862358012382e-20 1.945000000000001e-05  0.
-1.9417791129265346e-18 1.945000000000001e-05  0.
-4.089347445109398e-17 1.945000000000001e-05  0.
-7.701568276895853e-16 1.945000000000001e-05  0.
-1.2852197358330992e-14 1.945000000000001e-05  0.
-1.884780008426398e-13 1.945000000000001e-05  0.
-2.4061489194074682e-12 1.945000000000001e-05  0.
-2.644694403371358e-11 1.945000000000001e-05  0.
-2.47050748100119e-10 1.945000000000001e-05  0.
-1.9312926806343907e-09 1.945000000000001e-05  0.
-1.2402581648745567e-08 1.945000000000001e-05  0.
-6.398883414031933e-08 1.945000000000001e-05  0.
-2.583927172636824e-07 1.945000000000001e-05  0.
-7.940970747406786e-07 1.945000000000001e-05  0.
-1.8183294224195323e-06 1.945000000000001e-05  0.
-3.143402624968255e-06 1.945000000000001e-05  0.
-4.506528486830487e-06 1.945000000000001e-05  0.
-6.084170993051521e-06 1.945000000000001e-05  0.
-7.676444962833077e-06 1.945000000000001e-05  0.
-8.67773221760797e-06 1.945000000000001e-05  0.
</DataArray>
<DataArray type="Float64" Name="sigma_xx" NumberOfComponents="1" format="ascii" >
4.352074256530612e-05 
4.352074256530612e-05 
4.352074256530612e-05 
4.352074256530612e-05 
4.352074256530612e-05 
4.352074256530612e-05 
4.352074256530612e-05 
4.352074256530612e-05 
4.352074256530612e-05 
4.33653113418586e-05 
4.305444889496356e-05 
4.2754688678314765e-05 
4.244382623141972e-05 
4.152234112098084e-05 
4.0134562340199395e-05 
3.826938765882913e-05 
3.503863865716993e-05 
3.13082892944294e-05 
2.6190161150907433e-05 
1.7952306308188774e-05 
1.310063169057684e-05 
0.0004861888669438484 
0.00048618886694384834 
0.00048618886694384834 
0.00048618886694384834 
0.00048618886694384834 
0.00048618886694384834 
0.00048618886694384834 
0.00048603898683552394 
0.0004857281243886289 
0.00048496207050163754 
0.0004835132294545017 
0.00048091530757687884 
0.00047615800191636005 
0.0004676870002384701 
0.00045356496336523816 
0.0004316824675498764 
0.00039985237343387315 
0.00035692560018674147 
0.0003004541060391829 
0.00021214141554537483 
0.0001559752327295882 
0.008935119311104241 
0.008935119311104241 
0.008935119311104241 
0.008935119311104241 
0.008935119311104241 
0.00893504714660764 
0.008934825102002716 
0.008933698225632721 
0.008930284289831999 
0.008921696714736523 
0.008902206749539229 
0.008861322786657407 
0.008781064764207255 
0.008635675508017467 
0.008390965700044713 
0.008005340834671412 
0.00743667349922816 
0.006648676054155088 
0.005608141728785652 
0.00396849220152262 
0.0029164559656180682 
0.14507375301064934 
0.14507375301064934 
0.14507375301064934 
0.14507375301064934 
0.14507360313054102 
0.14507278711661792 
0.14506936207858695 
0.14505698309186238 
0.1450186748463977 
0.14491376432168573 
0.14465665887364304 
0.14408637061258384 
0.1429291796029019 
0.14076854681910328 
0.13703450041369075 
0.13103157447957864 
0.12202080457157644 
0.10934648742022543 
0.09240528342502327 
0.06537258512295804 
0.0479558170951577 
2.0663763589112696 
2.0663763589112696 
2.0663763589112696 
2.066376286746773 
2.066375248688245 
2.06636939226179 
2.066340898387863 
2.0662266619897443 
2.065841270271206 
2.064708598537023 
2.061765669303383 
2.0549078272313883 
2.040426316796128 
2.012467215095625 
1.9627838798719202 
1.8810590474149782 
1.7560637666225172 
1.5775370787451943 
1.335685456682611 
0.9443679560572344 
0.6910987560004851 
25.56995171154596 
25.56995163383035 
25.56995163383035 
25.56995120084337 
25.569946199288644 
25.569912331935278 
25.569720868423566 
25.568856215629758 
25.565616379452642 
25.555291149892405 
25.526601243885942 
25.456038882376568 
25.30021418478689 
24.988204255782513 
24.416809085714412 
23.453571340592553 
21.95055410214585 
19.76882103571497 
16.77025838753287 
11.844575270592012 
8.64105075271126 
271.7839084898087 
271.7839084120931 
271.783908262213 
271.7839062915671 
271.78388657955736 
271.7837287724566 
271.78269991212636 
271.7773431137881 
271.75489421549224 
271.6762411647532 
271.44095910425204 
270.82582991777565 
269.39981070950296 
266.42809498600417 
260.80852454368744 
251.08429911602212 
235.58975888460225 
212.71427584346185 
180.7855978586125 
127.46960026954739 
92.61046714503779 
2448.3139338782316 
2448.3139338782316 
2448.313933367529 
2448.313926944889 
2448.313859410022 
2448.313247943589 
2448.3087363080795 
2448.2819401927527 
2448.1542943655113 
2447.6599819911453 
2446.050973770041 
2441.55959992498 
2430.5724940693044 
2406.6904814712398 
2359.9592508638516 
2276.888494009976 
2141.642003328225 
1938.512518276369 
1650.3380260213248 
1160.5548025983564 
838.5567775770481 
18393.944237993222 
18393.944237915508 
18393.94423653883 
18393.944218925146 
18393.944014744025 
18393.941991612366 
18393.925443349606 
18393.8152270191 
18393.223900109442 
18390.665758305495 
18381.581711846004 
18354.319623117837 
18283.816516817533 
18123.54833289897 
17798.994303536147 
17206.204134279087 
16220.824982321465 
14716.0628539672 
12545.307120684352 
8786.320804562984 
6300.465667319341 
113009.78744575026 
113009.78744560038 
113009.78744255836 
113009.78739881003 
113009.78685256364 
113009.78102618537 
113009.72909475956 
113009.3481720495 
113007.0797443094 
112996.1933021117 
112953.8265960461 
112817.1917200604 
112442.73897678954 
111553.72313665086 
109692.08000182192 
106207.66107635456 
100308.47798986327 
91172.08236298632 
77775.5633197513 
54130.303704894 
38403.79120872982 
553994.179169681 
553994.1791694701 
553994.179163103 
553994.1790647593 
553994.1777599864 
553994.1629362886 
553994.0209872527 
553992.8921721724 
553985.546913671 
553946.896932561 
553782.9685085341 
553215.8118086797 
551575.1279274698 
547520.2462282529 
538788.7145530843 
522137.82000249106 
493618.0706520297 
449079.05022507894 
382857.9791589513 
263851.953194713 
184278.63305108808 
2098861.2206881857 
2098861.220687614 
2098861.220674796 
2098861.2204728522 
2098861.217660391 
2098861.183962929 
2098860.841340782 
2098857.9266307363 
2098837.4936314635 
2098721.141531511 
2098188.1405961514 
2096220.517764432 
2090260.7471034916 
2075054.9302051715 
2041743.9822667325 
1977789.5510847457 
1868428.2082468495 
1698295.2592329842 
1443389.7445106641 
978998.9312804054 
667319.3529559359 
5889605.636352766 
5889605.636351611 
5889605.636328381 
5889605.635948351 
5889605.630439602 
5889605.5614429265 
5889604.8239315245 
5889598.187790854 
5889548.684917074 
5889247.388407249 
5887772.068556996 
5882001.172527696 
5863830.9027792495 
5816660.743680226 
5713082.880838145 
5517044.524450036 
5189831.161589679 
4694659.195204122 
3957086.010551632 
2611062.2909293966 
1708639.4372476044 
11596494.601560622 
11596494.601558745 
11596494.601520214 
11596494.600863025 
11596494.591016555 
11596494.463055523 
11596493.037370494 
11596479.600029362 
11596374.082274068 
11595695.276752695 
11592178.881580655 
11577715.621115083 
11530666.981798781 
11407853.567866474 
11143101.916977024 
10661633.680620028 
9905153.084436074 
8834280.987064203 
7292791.087563302 
4561903.6811506115 
2754101.0295165405 
15248621.74540152 
15248621.745398706 
15248621.74533888 
15248621.744291281 
15248621.72816568 
15248621.512120748 
15248619.021643218 
15248594.639371295 
15248394.954810891 
15247050.563044228 
15239752.408673558 
15208425.869241863 
15103662.907590702 
14830751.934043264 
14264426.084887996 
13301193.59074374 
11937999.233950803 
10227530.02384682 
7965387.354984388 
4391078.912346943 
2141388.443404005 
14007399.659600833 
14007399.659596866 
14007399.65951043 
14007399.657965846 
14007399.633651398 
14007399.29971632 
14007395.342402413 
14007355.389075719 
14007016.860226164 
14004651.951276 
13991311.925754266 
13931968.872953225 
13728727.172616048 
13201929.010704393 
12164174.575747158 
10562682.112268962 
8590562.158036346 
6525247.114211374 
4147228.427303048 
1446657.3840756835 
95549.73359340563 
12608905.830723379 
12608905.830718039 
12608905.830601554 
12608905.828486694 
12608905.7945976 
12608905.31991199 
12608899.570085965 
12608840.089079808 
12608322.356049854 
12604598.119878657 
12582936.509247025 
12483727.833551502 
12136984.047767991 
11242462.108933546 
9579230.346205246 
7324739.458838172 
4985526.821767652 
3000610.608781682 
1035785.2945099863 
-146272.44517103315 
-229053.46637100665 
13552413.692026015 
13552413.692019232 
13552413.69187265 
13552413.689177984 
13552413.645408638 
13552413.023097632 
13552405.358877908 
13552324.598579004 
13551607.181972973 
13546330.719033595 
13514914.767201848 
13367746.306250012 
12844835.569711754 
11500033.018030442 
9131583.27889233 
6385149.5136552 
4113988.3699541274 
2410893.9455750906 
1001720.7784114885 
79835.94548762223 
-185070.07482182726 
13499408.034037191 
13499408.03402918 
13499408.033856604 
13499408.03065617 
13499407.978175616 
13499407.22414231 
13499397.828967853 
13499297.54291116 
13498393.881629478 
13491643.432811635 
13450784.441499505 
13256273.169968849 
12556631.605123535 
10759580.976365138 
7726600.568487776 
4733532.497955089 
2963543.488496231 
1440390.5885607994 
326093.7833974938 
-575213.6891457642 
-1332475.6367962454 
13215175.996584412 
13215175.99657569 
13215175.996385433 
13215175.992838291 
13215175.934347339 
13215175.088714536 