<?xml version="1.0"?>
<VTKFile type="UnstructuredGrid" version="0.1" byte_order="LittleEndian" compressor="vtkZLibDataCompressor">
<UnstructuredGrid>
<Piece NumberOfPoints="441" NumberOfCells="400">
<PointData>
<DataArray type="Float64" Name="displacement" NumberOfComponents="3" format="ascii" >
0.0 2.888354798529367e-17  0.
1.1748445792912568e-21 2.88901740227176e-17  0.
-1.0258241457362842e-23 2.8891228095140475e-17  0.
-2.1755099510444897e-22 2.889105145767273e-17  0.
-2.3680206100961285e-22 2.8889819306151543e-17  0.
-1.2825270275450597e-22 2.8889585135949454e-17  0.
-1.6389842971724017e-21 2.8888525456157894e-17  0.
-4.21124823765182e-21 2.888105777859601e-17  0.
-1.1822860821692699e-20 2.8862917626776586e-17  0.
-2.750277458087167e-20 2.883114226114196e-17  0.
-5.973907181560558e-20 2.8746539459335393e-17  0.
-1.0879861543710517e-19 2.858261237467142e-17  0.
-2.05148024170465e-19 2.8295082411177223e-17  0.
-3.447241134156506e-19 2.778988945862871e-17  0.
-5.583248913744273e-19 2.6950508566307973e-17  0.
-8.392810404129587e-19 2.565131027730433e-17  0.
-1.181000063364488e-18 2.376956445218948e-17  0.
-1.5676573368595588e-18 2.1206151175025356e-17  0.
-1.9820767083540805e-18 1.7909969724814748e-17  0.
-2.5162810061933973e-18 1.3982323849149408e-17  0.
-6.95367202456975e-18 1.4045667707696805e-17  0.
0.0 2.6938424112976727e-16  0.
-5.565702806096668e-22 2.693865224581999e-16  0.
-1.2604618552925154e-22 2.693861792445548e-16  0.
-1.6948591059424507e-22 2.6938616258303947e-16  0.
-9.23628890617667e-22 2.693857777681651e-16  0.
-2.3129193952706543e-21 2.693830261124179e-16  0.
-9.915475931803892e-21 2.6937218837266646e-16  0.
-3.2586620991880006e-20 2.6933022790501296e-16  0.
-8.417145933156418e-20 2.692341455634907e-16  0.
-2.0931723636082273e-19 2.6897031086063946e-16  0.
-4.63514900501602e-19 2.6838177993987274e-16  0.
-9.458776017417652e-19 2.671424418870895e-16  0.
-1.7727773372369492e-18 2.647206798189806e-16  0.
-3.1152007628223383e-18 2.603487928552629e-16  0.
-5.094016038127296e-18 2.5298465643609916e-16  0.
-7.797998808925719e-18 2.414124458892248e-16  0.
-1.1196032739186236e-17 2.2431917729091125e-16  0.
-1.510477229665064e-17 2.0063067154787148e-16  0.
-1.926653022121635e-17 1.6970264454972364e-16  0.
-2.4626570871710603e-17 1.3311347062595866e-16  0.
-7.267524478540864e-17 1.3573071793102823e-16  0.
0.0 4.475988232551621e-15  0.
-1.76862520542171e-21 4.475981865442172e-15  0.
-1.523773164926304e-21 4.4759745232488006e-15  0.
-4.608713570908158e-22 4.475972833537395e-15  0.
-6.545971108653923e-21 4.475966888972134e-15  0.
-2.981326622745408e-20 4.475936633308591e-15  0.
-1.1497471158763119e-19 4.475813225624662e-15  0.
-3.7718484856612697e-19 4.475409290589749e-15  0.
-1.0779178553694743e-18 4.474174676713224e-15  0.
-2.7873649227191394e-18 4.470864271609669e-15  0.
-6.484989291686955e-18 4.4628511830762666e-15  0.
-1.3776894562010408e-17 4.445232692040326e-15  0.
-2.6894657297549163e-17 4.409703884676059e-15  0.
-4.854422534025878e-17 4.3435099522146365e-15  0.
-8.135202526654515e-17 4.2291789665255284e-15  0.
-1.2705517479290764e-16 4.04521245799123e-15  0.
-1.8553624402751495e-16 3.768682745274878e-15  0.
-2.5395797591972037e-16 3.379225393997765e-15  0.
-3.273327018138157e-16 2.8651017788941803e-15  0.
-4.2252195067190735e-16 2.2523831685140787e-15  0.
-1.2438706063335793e-15 2.3053113807235363e-15  0.
0.0 6.6330869149745e-14  0.
-4.7970028959787386e-21 6.633086103121007e-14  0.
-1.5726441321160454e-21 6.633086236967051e-14  0.
-5.934261929543086e-21 6.633085466451617e-14  0.
-5.065457650759487e-20 6.633080949895606e-14  0.
-2.518629988448866e-19 6.633057274003176e-14  0.
-1.0704406466002707e-18 6.632951419793737e-14  0.
-3.81199983342763e-18 6.632553700352147e-14  0.
-1.1822946424997794e-17 6.631259727557551e-14  0.
-3.240233891503685e-17 6.627556800177615e-14  0.
-7.958641109571834e-17 6.61808618215671e-14  0.
-1.7684420315088086e-16 6.596229373667622e-14  0.
-3.587013382392443e-16 6.550294989292907e-14  0.
-6.683674917289457e-16 6.46175020195752e-14  0.
-1.150446219341751e-15 6.304292985514717e-14  0.
-1.8371790309278927e-15 6.044767732233622e-14  0.
-2.7321780450218094e-15 5.6467487090719215e-14  0.
-3.795263911943318e-15 5.0770137844666366e-14  0.
-4.950622861734586e-15 4.3152880344593764e-14  0.
-6.469208866380297e-15 3.401947294816961e-14  0.
-1.892077203159495e-14 3.4955238773103916e-14  0.
0.0 8.677910884670495e-13  0.
-7.085156898758817e-21 8.677910920026582e-13  0.
-1.721985579448746e-21 8.677910931025569e-13  0.
-3.807231432102229e-20 8.677910664666392e-13  0.
-2.908590881926476e-19 8.677908440906085e-13  0.
-1.7295978112635401e-18 8.67789369240642e-13  0.
-8.213947193060215e-18 8.677818162176533e-13  0.
-3.256717007587985e-17 8.677499018377964e-13  0.
-1.101129722261777e-16 8.676357871574704e-13  0.
-3.245830961069372e-16 8.672823618113527e-13  0.
-8.462659595886897e-16 8.663182004997329e-13  0.
-1.9780358402479655e-15 8.639688924353271e-13  0.
-4.183867157647029e-15 8.588018771823763e-13  0.
-8.075786686390534e-15 8.484547452777926e-13  0.
-1.431295662369354e-14 8.294593965293988e-13  0.
-2.3419774335537656e-14 7.973095676021568e-13  0.
-3.5525254385877355e-14 7.469147693244785e-13  0.
-5.014371172630233e-14 6.734897453301304e-13  0.
-6.625526031892544e-14 5.739716823240145e-13  0.
-8.777070872120471e-14 4.5393416169051915e-13  0.
-2.5457030241865523e-13 4.685630280099764e-13  0.
0.0 9.935157443040858e-12  0.
-5.759887051444747e-21 9.935157441606404e-12  0.
-1.3587153588211142e-20 9.93515743013764e-12  0.
-1.6647658816217497e-19 9.935157322797223e-12  0.
-1.3880009026903607e-18 9.935156321734594e-12  0.
-9.451668375209378e-18 9.935148978631842e-12  0.
-5.185472396353864e-17 9.935105185681988e-12  0.
-2.3128127051772665e-16 9.934894734590362e-12  0.
-8.650187956073403e-16 9.934055229614164e-12  0.
-2.765308821151284e-15 9.931213013163444e-12  0.
-7.720590707476784e-15 9.922862134685362e-12  0.
-1.90835615565256e-14 9.901231599977467e-12  0.
-4.230814104612177e-14 9.851168816961944e-12  0.
-8.488151547508194e-14 9.746585928052514e-12  0.
-1.5537210552820873e-13 9.547716397520144e-12  0.
-2.6101502410011503e-13 9.201212161023467e-12  0.
-4.045647548093427e-13 8.644983064755158e-12  0.
-5.809329051987027e-13 7.818865928619854e-12  0.
-7.78414784859293e-13 6.682655508538674e-12  0.
-1.0469613291577668e-12 5.3046114975714575e-12  0.
-3.0043136374180274e-12 5.505571168655583e-12  0.
0.0 9.85356285753864e-11  0.
-1.2966061954539475e-20 9.853562857355502e-11  0.
-5.09539322443277e-20 9.853562854663524e-11  0.
-5.959079778976441e-19 9.853562818615163e-11  0.
-5.544180560197276e-18 9.85356246053832e-11  0.
-4.247309916973054e-17 9.853559475727573e-11  0.
-2.663554312908198e-16 9.853539103628333e-11  0.
-1.3567439485377784e-15 9.853426153253313e-11  0.
-5.654463613536897e-15 9.852918613066654e-11  0.
-1.98485145565767e-14 9.851015566108914e-11  0.
-5.974237643460972e-14 9.844940151564586e-11  0.
-1.5733235163310607e-13 9.82807613747965e-11  0.
-3.672094316720403e-13 9.786767375969236e-11  0.
-7.690888906842683e-13 9.696314726595058e-11  0.
-1.4578030408199016e-12 9.517537719808033e-11  0.
-2.520593528405784e-12 9.195987539409402e-11  0.
-3.998016432715586e-12 8.666322693785719e-11  0.
-5.848423168250065e-12 7.863224034560174e-11  0.
-7.955213380464162e-12 6.741370278556789e-11  0.
-1.0882955671146902e-11 5.374582762320014e-11  0.
-3.080033132778774e-11 5.615177852637099e-11  0.
0.0 8.366413075632119e-10  0.
-1.9267336693261082e-20 8.366413075715958e-10  0.
-1.5156566880970623e-19 8.366413074947722e-10  0.
-1.8689430135885897e-18 8.366413064765507e-10  0.
-1.8911376693827037e-17 8.366412954218784e-10  0.
-1.607205330607425e-16 8.36641193645604e-10  0.
-1.1311768051869576e-15 8.366404143179512e-10  0.
-6.515359031420124e-15 8.366355203787689e-10  0.
-3.0620659038229336e-14 8.36610470841841e-10  0.
-1.1863439144618586e-13 8.36505748813345e-10  0.
-3.8881634145638847e-13 8.361386415219788e-10  0.
-1.0964718839207519e-12 8.350390631658291e-10  0.
-2.7105203142773492e-12 8.321696866205031e-10  0.
-5.945633410917321e-12 8.255543247504794e-10  0.
-1.1709861901664939e-11 8.119134243728137e-10  0.
-2.0876042451588615e-11 7.86521370431254e-10  0.
-3.39450685099257e-11 7.435173272336983e-10  0.
-5.063300639876571e-11 6.768623560543936e-10  0.
-6.999963867420594e-11 5.822326891845508e-10  0.
-9.758429642858202e-11 4.666418426168896e-10  0.
-2.712662316927072e-10 4.915135261243283e-10  0.
0.0 5.997510732129183e-09  0.
-2.5112777964247127e-20 5.99751073211492e-09  0.
-4.0706185846691536e-19 5.997510731926762e-09  0.
-5.1733089956047416e-18 5.997510729394886e-09  0.
-5.637640115120639e-17 5.997510699675086e-09  0.
-5.224392629085669e-16 5.997510402273031e-09  0.
-4.054012477431083e-15 5.9975078969824845e-09  0.
-2.6007593800841048e-14 5.99749037543163e-09  0.
-1.3669991339434394e-13 5.997389851242587e-09  0.
-5.890322532174994e-13 5.996918085464019e-09  0.
-2.108318595785346e-12 5.995095250086576e-09  0.
-6.412091613588304e-12 5.98915956277804e-09  0.
-1.6842500412732774e-11 5.972580922420849e-09  0.
-3.885843549010236e-11 5.9321504498246184e-09  0.
-7.966824521025964e-11 5.844917872506548e-09  0.
-1.46756723439161e-10 5.676467358715191e-09  0.
-2.4482279442718237e-10 5.3827286658998826e-09  0.
-3.7271930939904864e-10 4.916896100890385e-09  0.
-5.240911723154735e-10 4.2447630228160185e-09  0.
-7.461775890432103e-10 3.4245755730052118e-09  0.
-2.025784521838419e-09 3.644059706811831e-09  0.
0.0 3.5702555103866667e-08  0.
-6.048908798930372e-20 3.570255510384234e-08  0.
-9.574957154854032e-19 3.5702555103447015e-08  0.
-1.2813634999458301e-17 3.570255509778082e-08  0.
-1.4898060837454406e-16 3.570255502724021e-08  0.
-1.4843422129973608e-15 3.570255427005206e-08  0.
-1.2504373720854005e-14 3.570254736224774e-08  0.
-8.791652671910138e-14 3.570249451867933e-08  0.
-5.101129745863319e-13 3.57021596847567e-08  0.
-2.4278637785915757e-12 3.570041902070984e-08  0.
-9.520557675060757e-12 3.569298999524776e-08  0.
-3.124846398650042e-11 3.5666674232837737e-08  0.
-8.754279937311159e-11 3.5587707508434746e-08  0.
-2.1267283502298806e-10 3.538360031293965e-08  0.
-4.547966847833031e-10 3.492183763684516e-08  0.
-8.658298614436592e-10 3.399599173590117e-08  0.
-1.4825907134013295e-09 3.233294367759163e-08  0.
-2.3028390883071486e-09 2.963517028659665e-08  0.
-3.2953489087675986e-09 2.568442296473702e-08  0.
-4.801275648364128e-09 2.0900770755548e-08  0.
-1.2632898100193534e-08 2.253267780454076e-08  0.
0.0 1.7300551232612186e-07  0.
-1.3022462164351913e-19 1.7300551232608837e-07  0.
-2.047992637425244e-18 1.7300551232533094e-07  0.
-2.873912347164799e-17 1.7300551231395672e-07  0.
-3.5290150825977097e-16 1.7300551216455805e-07  0.
-3.7375625344328156e-15 1.7300551046376844e-07  0.
-3.3734340408676094e-14 1.7300549388051674e-07  0.
-2.562330629371144e-13 1.7300535711537603e-07  0.
-1.6179500362824917e-12 1.7300441538430446e-07  0.
-8.412816314982671e-12 1.729990610061051e-07  0.
-3.5926442150889563e-11 1.7297408899679475e-07  0.
-1.2708100750082638e-10 1.7287812785819973e-07  0.
-3.790301107231336e-10 1.7256965184317217e-07  0.
-9.693727183096246e-10 1.7172523570782948e-07  0.
-2.1592128553675714e-09 1.6972509097997628e-07  0.
-4.244112104222606e-09 1.655667141352276e-07  0.
-7.445236959706012e-09 1.5788810402451845e-07  0.
-1.1780672649631134e-08 1.4517833225971168e-07  0.
-1.7143799372014376e-08 1.2636615818700317e-07  0.
-2.5608532952416324e-08 1.0405892295156393e-07  0.
-6.459772323754129e-08 1.141174161722923e-07  0.
0.0 6.660196414129302e-07  0.
-2.485111071122536e-19 6.66019641412866e-07  0.
-4.024188044391132e-18 6.660196414115271e-07  0.
-5.880520895637744e-17 6.660196413908303e-07  0.
-7.559104329754021e-16 6.660196411066623e-07  0.
-8.42849171757668e-15 6.66019637707776e-07  0.
-8.06093134581012e-14 6.660196026685884e-07  0.
-6.533075994610114e-13 6.660192950110833e-07  0.
-4.430988731514392e-12 6.66017023313318e-07  0.
-2.486365303353121e-11 6.660030945698309e-07  0.
-1.145841704366472e-10 6.65932866114338e-07  0.
-4.34255854952258e-10 6.656426330992356e-07  0.
-1.3708368562747107e-09 6.64650941037644e-07  0.
-3.673677239163004e-09 6.617959428801226e-07  0.
-8.482181193433902e-09 6.547609628099443e-07  0.
-1.713624324799522e-08 6.396889358749255e-07  0.
-3.0650152132245397e-08 6.112591176053523e-07  0.
-4.919102221231849e-08 5.635767715387032e-07  0.
-7.2623393967431e-08 4.929561677438464e-07  0.
-1.1129420502073603e-07 4.131123853674075e-07  0.
-2.650644939729582e-07 4.6350256784440273e-07  0.
0.0 1.9786324468317565e-06  0.
-4.3291680712711725e-19 1.978632446831639e-06  0.
-7.270000777984195e-18 1.978632446829529e-06  0.
-1.1023724908498071e-16 1.978632446795382e-06  0.
-1.4727998725088765e-15 1.9786324463089313e-06  0.
-1.714718342855973e-14 1.9786324402445426e-06  0.
-1.7214350822097353e-13 1.978632374744496e-06  0.
-1.4728952231896013e-12 1.9786317687581233e-06  0.
-1.0606830466880204e-11 1.9786270263510604e-06  0.
-6.348524597154848e-11 1.9785960429290383e-06  0.
-3.125174253140911e-10 1.9784291383772083e-06  0.
-1.259406524156228e-09 1.9776939107380663e-06  0.
-4.179581009679358e-09 1.9750436966575807e-06  0.
-1.1619815532876283e-08 1.9671213416892383e-06  0.
-2.7583773975978772e-08 1.947055645976766e-06  0.
-5.670719846154156e-08 1.9033550807943447e-06  0.
-1.0254628667588253e-07 1.8202561733163561e-06  0.
-1.6545605596618275e-07 1.681155143040536e-06  0.
-2.466458649757897e-07 1.4795026972761024e-06  0.
-3.868478024800437e-07 1.2748859052119324e-06  0.
-8.51236979181651e-07 1.4748649150648482e-06  0.
0.0 4.406740000631921e-06  0.
-6.920016095971517e-19 4.4067400006317645e-06  0.
-1.2144207406686841e-17 4.406740000628709e-06  0.
-1.898566811827467e-16 4.406740000577835e-06  0.
-2.619853443509633e-15 4.406739999830332e-06  0.
-3.162224119958976e-14 4.406739990181469e-06  0.
-3.3053250613585886e-13 4.406739881831151e-06  0.
-2.958340645581377e-12 4.406738834846617e-06  0.
-2.239147082871547e-11 4.40673023566731e-06  0.
-1.4144468555170896e-10 4.406671008965329e-06  0.
-7.362991134719061e-10 4.406333677735851e-06  0.
-3.1292837527384754e-09 4.404764402707945e-06  0.
-1.0845477777848183e-08 4.398840706187142e-06  0.
-3.10078442272442e-08 4.3805997985085005e-06  0.
-7.468827111895281e-08 4.333915642853228e-06  0.
-1.5431228797221295e-07 4.2324439046115226e-06  0.
-2.7800118177407135e-07 4.042382627689849e-06  0.
-4.4553965913657515e-07 3.733409036376628e-06  0.
-6.645931178005078e-07 3.315403167242366e-06  0.
-1.0580988496378893e-06 2.9936736540017705e-06  0.
-2.086380644878537e-06 3.60043926999662e-06  0.
0.0 7.306470695498548e-06  0.
-1.0487281501898169e-18 7.306470695498331e-06  0.
-1.880808625876542e-17 7.306470695494304e-06  0.
-3.0131535897247616e-16 7.306470695426055e-06  0.
-4.270657252295372e-15 7.306470694396376e-06  0.
-5.3107110918038447e-14 7.306470680715581e-06  0.
-5.738591762567117e-13 7.306470522059138e-06  0.
-5.329704775892982e-12 7.306468932975978e-06  0.
-4.202384894160282e-11 7.306455351536523e-06  0.
-2.7751624531979383e-10 7.306357648296085e-06  0.
-1.5133629960570525e-09 7.305774832264779e-06  0.
-6.727820385028805e-09 7.302935893758088e-06  0.
-2.4197905210702925e-08 7.2917865675901e-06  0.
-7.067635234448853e-08 7.2566399914174644e-06  0.
-1.7075652648566855e-07 7.166708081390147e-06  0.
-3.4957024762247014e-07 6.9753585925336425e-06  0.
-6.17227077548882e-07 6.631816010766087e-06  0.
-9.683312462542386e-07 6.112334702223097e-06  0.
-1.4303514770794038e-06 5.519744387084364e-06  0.
-2.2649967471064937e-06 5.383152549861702e-06  0.
-3.860554128228136e-06 6.7246014680531486e-06  0.
0.0 9.634008725288797e-06  0.
-1.4833288124961797e-18 9.634008725288564e-06  0.
-2.710659860523948e-17 9.634008725283774e-06  0.
-4.4279748811587443e-16 9.634008725201003e-06  0.
-6.414614228012874e-15 9.634008723925954e-06  0.
-8.172684108963244e-14 9.634008706583363e-06  0.
-9.072644257648359e-13 9.63400850015647e-06  0.
-8.682569075001743e-12 9.634006371822445e-06  0.
-7.07647980162986e-11 9.633987588435405e-06  0.
-4.844613241275832e-10 9.63384761868962e-06  0.
-2.7440975550545377e-09 9.632980667358539e-06  0.
-1.2662743299808079e-08 9.628593914612292e-06  0.
-4.6990203922621586e-08 9.610776440319372e-06  0.
-1.3957452809834443e-07 9.553476155924243e-06  0.
-3.356872771192461e-07 9.407757347408678e-06  0.
-6.721828718369174e-07 9.109123075461969e-06  0.
-1.1517315150247327e-06 8.605128810095509e-06  0.
-1.7469896773973835e-06 7.935207331786946e-06  0.
-2.5452304081888057e-06 7.422604957305558e-06  0.
-3.870320297398076e-06 7.994564824588103e-06  0.
-5.595438788373747e-06 1.0009073082111868e-05  0.
0.0 1.1794073895026384e-05  0.
-1.9627657972500987e-18 1.1794073895026133e-05  0.
-3.645324923806217e-17 1.1794073895021005e-05  0.
-6.050027655577886e-16 1.1794073894930987e-05  0.
-8.918179576747991e-15 1.1794073893520898e-05  0.
-1.158359773501184e-13 1.179407387398427e-05  0.
-1.313732365015295e-12 1.1794073636620984e-05  0.
-1.2874508452633583e-11 1.17940711329477e-05  0.
-1.0771644122553597e-10 1.1794048471574301e-05  0.
-7.588098972022377e-10 1.1793874858500931e-05  0.
-4.430232946363497e-09 1.1792766926745018e-05  0.
-2.106927610304962e-08 1.1786986754447681e-05  0.
-8.023683813371388e-08 1.1762844907347542e-05  0.
-2.4169010136476514e-07 1.168381232218093e-05  0.
-5.769124487059659e-07 1.148414216287316e-05  0.
-1.1207759993478722e-06 1.1093744063289272e-05  0.
-1.8538557889340023e-06 1.0492564105872693e-05  0.
-2.7337175115463907e-06 9.831005621243503e-06  0.
-3.9181688697501e-06 9.714435349111818e-06  0.
-5.562375270111497e-06 1.1030114387829625e-05  0.
-7.052975920872767e-06 1.282846677637428e-05  0.
0.0 1.4358566924713324e-05  0.
-2.4377185591879787e-18 1.4358566924713092e-05  0.
-4.581857288914287e-17 1.4358566924708307e-05  0.
-7.696468079481494e-16 1.4358566924622927e-05  0.
-1.1496438129370587e-14 1.4358566923268418e-05  0.
-1.51527958475618e-13 1.4358566904232564e-05  0.
-1.7466627292637304e-12 1.435856666927813e-05  0.
-1.742800687378414e-11 1.4358564147276576e-05  0.
-1.4873892013041047e-10 1.4358540874816249e-05  0.
-1.0707635988239854e-09 1.4358358748317706e-05  0.
-6.397608187740013e-09 1.435716956808756e-05  0.
-3.114212564052083e-08 1.4350816015649991e-05  0.
-1.2105532385974022e-07 1.43236769672561e-05  0.
-3.68954104919089e-07 1.4233437853741844e-05  0.
-8.748635169795482e-07 1.4006208351705276e-05  0.
-1.647383264950721e-06 1.358254635325137e-05  0.
-2.6249405084914164e-06 1.3009879753532842e-05  0.
-3.8207177794411465e-06 1.255882467598977e-05  0.
-5.331366733832493e-06 1.2930248424427114e-05  0.
-7.049518546865015e-06 1.4221482594318211e-05  0.
-8.359513076316256e-06 1.4927159601874586e-05  0.
0.0 1.6670318631581573e-05  0.
-2.847804062586621e-18 1.6670318631581394e-05  0.
-5.3893536636931236e-17 1.6670318631577623e-05  0.
-9.129747467072804e-16 1.6670318631510392e-05  0.
-1.3764759586091141e-14 1.667031863043373e-05  0.
-1.8330079565052515e-13 1.6670318615151916e-05  0.
-2.1371009868043023e-12 1.6670318424453053e-05  0.
-2.1594218424764083e-11 1.6670316352499767e-05  0.
-1.8687601802699552e-10 1.6670296973644137e-05  0.
-1.3659099518123232e-09 1.667014305898345e-05  0.
-8.294657517243762e-09 1.6669121768951966e-05  0.
-4.1048755007063637e-08 1.6663572417313107e-05  0.
-1.6195929161267494e-07 1.6639475974567246e-05  0.
-4.981810911746049e-07 1.6558319500620062e-05  0.
-1.176492073095115e-06 1.6354009614602578e-05  0.
-2.159878967484704e-06 1.5987927851247716e-05  0.
-3.3207324522791967e-06 1.5567135735236122e-05  0.
-4.76835451864884e-06 1.5425120621008386e-05  0.
-6.413834239024281e-06 1.595771609490267e-05  0.
-7.959020675872333e-06 1.664118625517196e-05  0.
-9.236093021010643e-06 1.677017007197571e-05  0.
0.0 1.9065095418703725e-05  0.
-3.1354695688376395e-18 1.9065095418703613e-05  0.
-5.939721971742044e-17 1.9065095418701557e-05  0.
-1.0111028457169332e-15 1.9065095418664345e-05  0.
-1.5328786711551716e-14 1.906509541806584e-05  0.
-2.053778070029965e-13 1.9065095409520895e-05  0.
-2.4107183206665364e-12 1.9065095302196684e-05  0.
-2.4541617493994384e-11 1.9065094127695118e-05  0.
-2.141404526469135e-10 1.9065083055300184e-05  0.
-1.5793599672090288e-09 1.906499433959158e-05  0.
-9.683933968791602e-09 1.9064400072496286e-05  0.
-4.8400274327516126e-08 1.9061138331198248e-05  0.
-1.927108939054274e-07 1.904683261102333e-05  0.
-5.963735105841101e-07 1.899825377894232e-05  0.
-1.4062692223318742e-06 1.88757457638419e-05  0.
-2.541905985774243e-06 1.8661909575742138e-05  0.
-3.7958983798050626e-06 1.845380719272262e-05  0.
-5.318609474027532e-06 1.8488947577815184e-05  0.
-7.005869298373241e-06 1.8777603163401213e-05  0.
-8.299662787948863e-06 1.9005270501630943e-05  0.
-9.612780140885354e-06 1.929970156629542e-05  0.
0.0 2.144999999999999e-05  0.
-3.2356502072257165e-18 2.144999999999999e-05  0.
-6.136061405387027e-17 2.144999999999999e-05  0.
-1.0460556143840675e-15 2.144999999999999e-05  0.
-1.5887637402010717e-14 2.144999999999999e-05  0.
-2.1329648127427743e-13 2.144999999999999e-05  0.
-2.5092734451834903e-12 2.144999999999999e-05  0.
-2.5608212938865186e-11 2.144999999999999e-05  0.
-2.240575758246909e-10 2.144999999999999e-05  0.
-1.6574427463703293e-09 2.144999999999999e-05  0.
-1.0195277866330618e-08 2.144999999999999e-05  0.
-5.112390472584468e-08 2.144999999999999e-05  0.
-2.041791341145829e-07 2.144999999999999e-05  0.
-6.332050642076156e-07 2.144999999999999e-05  0.
-1.49275830357845e-06 2.144999999999999e-05  0.
-2.6844941349406474e-06 2.144999999999999e-05  0.
-3.960633195428266e-06 2.144999999999999e-05  0.
-5.469981005177786e-06 2.144999999999999e-05  0.
-7.191832753341625e-06 2.144999999999999e-05  0.
-8.387878615122072e-06 2.144999999999999e-05  0.
-9.73073104960604e-06 2.144999999999999e-05  0.
</DataArray>
<DataArray type="Float64" Name="sigma_xx" NumberOfComponents="1" format="ascii" >
0.0013472778448431195 
0.0013472778448431195 
0.0013472778448431195 
0.0013472778448431195 
0.0013472778448431195 
0.0013472778448431195 
0.001347122413619672 
0.0013465117909561282 
0.0013453016478592868 
0.0013431811218822527 
0.0013390621944608934 
0.0013306356017039884 
0.0013151368882802212 
0.0012891132605830076 
0.0012469802967984829 
0.0011840195490719903 
0.0010941358929983376 
0.000972610880722868 
0.0008159362074877661 
0.0005647038392453394 
0.0004014788501649489 
0.01245206160405132 
0.01245206160405132 
0.01245206160405132 
0.01245206160405132 
0.012451983888439596 
0.012451761843834671 
0.012451006892177926 
0.012448359010264195 
0.012441625507619843 
0.012426049078584352 
0.012392326054211363 
0.012324047338196916 
0.012195422449678969 
0.011970779922876314 
0.011602996341508739 
0.011038303604493645 
0.010222256374703417 
0.009109235588056205 
0.00765860708185073 
0.0053939408495295976 
0.003944566895341948 
0.18497201548228753 
0.18497201548228753 
0.18497201548228753 
0.18497194331779093 
0.18497142151296936 
0.18496918441357474 
0.18496109088772522 
0.18493480635761722 
0.1848608932597528 
0.18467528617449597 
0.18425107550790182 
0.1833611484869379 
0.1816379935348777 
0.1785445735702495 
0.17337071223089134 
0.16527694213230854 
0.1533984550494693 
0.13699242296105746 
0.11536873123496601 
0.0812890088575102 
0.05941787062369028 
2.417282396471875 
2.4172824741874868 
2.41728240202299 
2.4172816581735637 
2.4172777335351716 
2.417260253073649 
2.417190475556551 
2.4169502288451374 
2.4162293665863634 
2.414307642695234 
2.4096925066441335 
2.399615101067453 
2.379443125866131 
2.3421939832068963 
2.2783968212092267 
2.1766096758302202 
2.024770129338548 
1.81223046569201 
1.5287174193190363 
1.076186079140839 
0.7845527671967996 
27.632714605374524 
27.632714683090136 
27.63271424455204 
27.632710924985197 
27.632690108303485 
27.632578825098612 
27.6320841319233 
27.630223620178633 
27.62420357460548 
27.607095021142662 
27.563798060681314 
27.465015417504894 
27.259967927406585 
26.86964515330458 
26.18406849119736 
25.067143966106535 
23.372203333815726 
20.966160346747024 
17.715242317528627 
12.45446333841826 
9.048843607750708 
273.4699667161776 
273.46996664401314 
273.46996533395 
273.4699525053229 
273.46985806975243 
273.46927898297395 
273.4663713421791 
273.45429854941364 
273.41175431461187 
273.2821926532124 
272.9347990226837 
272.10392654075645 
270.31019660395106 
266.7840375891738 
260.4235357139827 
249.83341782858207 
233.4750694971132 
209.91518040747167 
177.64560406030577 
124.64392246391836 
90.16807369643936 
2314.778767420477 
2314.7787670596545 
2314.7787626132113 
2314.77871785457 
2314.7783502541756 
2314.7758342834104 
2314.7616829977114 
2314.696227928569 
2314.444014323013 
2313.6152382863256 
2311.2524330237684 
2305.305919264588 
2291.929338385511 
2264.7296235051012 
2214.31055140997 
2128.481943677873 
1993.524750035224 
1796.3119125774524 
1522.3050360224638 
1065.0258245953332 
766.0514125151781 
16517.206392041568 
16517.206390881383 
16517.20637776965 
16517.206239913256 
16517.205003446772 
16517.19571194587 
16517.137894417327 
16516.841763791752 
16515.588378346318 
16511.137014613145 
16497.589836808595 
16461.66695326023 
16377.336823367168 
16199.965948515688 
15862.13398912239 
15274.629081007957 
14335.04698486465 
12943.07614804479 
10980.580474689856 
7649.682689439549 
5460.35796512023 
97627.10389725758 
97627.10389449866 
97627.10386096992 
97627.10348283351 
97627.09983515136 
97627.07014857038 
97626.86856106258 
97625.73705648366 
97620.50311308831 
97600.39834686425 
97535.14126816796 
97352.74436285521 
96906.53918852651 
95937.10497795834 
94044.53060293524 
90690.65914626414 
85250.42363187461 
77097.97768377932 
65439.162079178306 
45304.482661334674 
31998.91534371722 
467677.66103947826 
467677.6610336718 
467677.660955451 
467677.6600224695 
467677.6504595857 
467677.5671569209 
467676.9575914284 
467673.2521837533 
467654.67852642445 
467577.87243120733 
467312.824897173 
466534.9033646986 
464559.3882208641 
460147.92858014564 
451367.90040948545 
435607.78074536717 
409832.1086515587 
370959.75204118877 
314670.60559988423 
215812.9772710459 
150157.49799774928 
1765621.2037580272 
1765621.2037467863 
1765621.2035798528 
1765621.2014934607 
1765621.1789785374 
1765620.9711945031 
1765619.3508968735 
1765608.8031912704 
1765552.0715895512 
1765301.2517301994 
1764385.736692358 
1761584.130632928 
1754252.857313631 
1737580.7154606371 
1704089.7249224358 
1643881.0360150347 
1545723.546422908 
1398252.2563513145 
1182984.8741933876 
799588.5112338533 
543997.8691628764 
5061260.259476551 
5061260.259455839 
5061260.2591287065 
5061260.2548751375 
5061260.206911081 
5061259.742087197 
5061255.9167687185 
5061229.5201273225 
5061078.650608161 
5060371.15142015 
5057655.711909251 
5049050.480156382 
5026105.031236986 
4973616.804236384 
4868927.980280062 
4683805.479069765 
4389104.014377441 
3956227.204175112 
3325291.5216830284 
2194424.5621048314 
1439872.070132813 
10495349.250083704 
10495349.25004739 
10495349.249456402 
10495349.24151664 
10495349.148590961 
10495348.210160896 
10495340.128971647 
10495281.554535212 
10494929.032388015 
10493189.676843952 
10486213.867740171 
10463458.16029631 
10402252.084742825 
10263596.284357145 
9994424.645059854 
9538634.915094472 
8852457.891275506 
7899486.846478018 
6538032.112364256 
4130791.4731646916 
2536925.6537264716 
14957998.70056694 
14957998.700507592 
14957998.699521458 
14957998.685902044 
14957998.521446276 
14957996.802394558 
14957981.427440956 
14957865.31048807 
14957135.50682531 
14953375.802569432 
14937715.81652689 
14885388.662112188 
14744506.735911267 
14433218.22370674 
13857155.10065717 
12952707.605262695 
11719350.233870473 
10181294.833656743 
8097713.092925919 
4657305.74542151 
2457191.7732247734 
14675064.868899953 
14675064.868809873 
14675064.867284665 
14675064.84571905 
14675064.578462427 
14675061.703755032 
14675035.172750238 
14674827.856815293 
14673476.984415403 
14666260.882657565 
14635218.740890838 
14529361.180019101 
14245335.819963457 
13640614.498902189 
12597159.109537095 
11122478.628552824 
9392244.565064704 
7556870.784866414 
5303952.3811925305 
2304973.1416772935 
620987.4755265991 
12593522.240151685 
12593522.240024187 
12593522.237828216 
12593522.206169879 
12593521.805396553 
12593517.392402982 
12593475.60538406 
12593139.849168696 
12590886.316469593 
12578481.887163557 
12523652.849160489 
12333396.292138215 
11825450.750010699 
10790956.092042333 
9163860.76259764 
7156704.457736731 
5225553.424703153 
3515939.223120113 
1598522.389408591 
46684.42644046028 
-418686.38925536006 
13260241.975271476 
13260241.975102395 
13260241.972151212 
13260241.92894861 
13260241.37267137 
13260235.13209885 
13260174.820304804 
13259679.351790158 
13256274.394165965 
13237075.334469654 
13150317.012594238 
12844853.972220019 
12033315.835189514 
10455198.483223464 
8238755.733545188 
5946056.782307477 
4161104.053201181 
2768147.2566540246 
1074792.9541136348 
67687.41746620578 
68156.99741602749 
13686863.559599444 
13686863.559389006 
13686863.555681396 
13686863.50076871 
13686862.784512255 
13686854.6343965 
13686774.635334425 
13686106.25893547 
13681429.698246604 
13654570.320115643 
13531101.280649953 
13091320.519446481 
11927469.457470031 
9757862.678415863 
7068533.0336399395 
4861333.641890589 
3363194.16647356 
2083516.1119597575 
454716.31346818194 
-547432.9332609514 
-565036.8264379997 
13209301.40822417 
13209301.407978443 
13209301.403619051 
13209301.338510318 
13209300.481499277 
13209290.63202589 
13209192.892126326 
13208366.563106064 
13202511.215291534 
13168441.185804188 
13009903.108418275 
12440392.900160398 
10936997.165359411 
8225575.631076042 
5238930.743714784 
3425096.3556242883 
2173540.937835381 
548140.6817296647 
-604693.0161786774 
-749834.2587235488 
-591126.3970114116 
13415091.463561185 
13415091.463291746 
13415091.45848947 
13415091.386405092 
13415090.43243051 
13415079.403443202 
13414969.247689895 
13414031.377723671 
13407335.507144632 
13368071.654488761 