<?xml version="1.0"?>
<VTKFile type="UnstructuredGrid" version="0.1" byte_order="LittleEndian" compressor="vtkZLibDataCompressor">
<UnstructuredGrid>
<Piece NumberOfPoints="441" NumberOfCells="400">
<PointData>
<DataArray type="Float64" Name="displacement" NumberOfComponents="3" format="ascii" >
0.0 2.331451912995833e-12  0.
-3.74455332336133e-19 2.331451606928055e-12  0.
-1.687534818394179e-18 2.331449990713423e-12  0.
-6.6585891199488276e-18 2.331443313578432e-12  0.
-2.3428453699626e-17 2.331418852589363e-12  0.
-7.373271692388227e-17 2.33133903564146e-12  0.
-2.0994944025147174e-16 2.3311038616822373e-12  0.
-5.447818951171857e-16 2.3304735701820985e-12  0.
-1.297129085672552e-15 2.328925647942218e-12  0.
-2.8507104448393895e-15 2.325421339787149e-12  0.
-5.811227700836073e-15 2.318070356598498e-12  0.
-1.1035355069537672e-14 2.3037187130964807e-12  0.
-1.9592132718654723e-14 2.277541993415768e-12  0.
-3.262200678944186e-14 2.2327919878938577e-12  0.
-5.107656442016067e-14 2.16089015384823e-12  0.
-7.537025247450563e-14 2.0520510017173062e-12  0.
-1.050229679689773e-13 1.896525772526977e-12  0.
-1.3845797838484378e-13 1.6863970615466056e-12  0.
-1.736441496896283e-13 1.4182721420331747e-12  0.
-2.2125497293623262e-13 1.108645179141198e-12  0.
-5.258448366312491e-13 1.1187026283666689e-12  0.
0.0 1.0705036932641144e-11  0.
-9.671945673447003e-19 1.0705036305107134e-11  0.
-4.823285743338726e-18 1.0705032303727786e-11  0.
-2.0538444250545353e-17 1.0705014209651503e-11  0.
-7.716348273982297e-17 1.0704942811321616e-11  0.
-2.577159892617467e-16 1.0704693153781051e-11  0.
-7.729457445706424e-16 1.0703911937979858e-11  0.
-2.099461859261877e-15 1.0701704507681103e-11  0.
-5.2034516900469974e-15 1.0696027289328071e-11  0.
-1.1843430574440669e-14 1.068264674135338e-11  0.
-2.4893777531417604e-14 1.0653575611174293e-11  0.
-4.854866157692221e-14 1.0595059101841968e-11  0.
-8.820852770234703e-14 1.0485462863133932e-11  0.
-1.4982767863030472e-13 1.029376781138415e-11  0.
-2.3862477851341096e-13 9.979649909627095e-12  0.
-3.5725101401607474e-13 9.496139306897157e-12  0.
-5.038522571515474e-13 8.795435688644943e-12  0.
-6.708321006215915e-13 7.837763023252987e-12  0.
-8.487188930433474e-13 6.60568103520878e-12  0.
-1.1045516222541218e-12 5.201009955506601e-12  0.
-2.9411999121902814e-12 5.404469469609221e-12  0.
0.0 8.538772199799783e-11  0.
-4.207667525440382e-18 8.538771939613068e-11  0.
-2.276004911309757e-17 8.538770217580514e-11  0.
-1.0491914548643183e-16 8.538761775136005e-11  0.
-4.2286087263485387e-16 8.538725836871288e-11  0.
-1.505229014703176e-15 8.538591247396929e-11  0.
-4.776198975778291e-15 8.538143609715675e-11  0.
-1.3633249113571225e-14 8.536808821421202e-11  0.
-3.528809537150189e-14 8.533210209174038e-11  0.
-8.342235673494083e-14 8.524371748886829e-11  0.
-1.812211982364775e-13 8.504466921627529e-11  0.
-3.6368188007258503e-13 8.463130928474342e-11  0.
-6.772998368094094e-13 8.383592276764067e-11  0.
-1.1751294869414416e-12 8.241192870547243e-11  0.
-1.905786487752632e-12 8.00315014821153e-11  0.
-2.8972217998438687e-12 7.63047389884287e-11  0.
-4.138596569629052e-12 7.082645937155581e-11  0.
-5.568134047388066e-12 6.325093372151978e-11  0.
-7.1058836376757194e-12 5.3419185704168706e-11  0.
-9.32605624856029e-12 4.218159011488545e-11  0.
-2.4661239351081825e-11 4.419124818042529e-11  0.
0.0 6.056993137417196e-10  0.
-1.6130678269469047e-17 6.056993044274469e-10  0.
-9.38982158152985e-17 6.056992386016083e-10  0.
-4.660411993388919e-16 6.056988907547502e-10  0.
-2.0156964799082123e-15 6.056972961696979e-10  0.
-7.652654544863898e-15 6.056909017471007e-10  0.
-2.5730516748041048e-14 6.056682761704654e-10  0.
-7.730178599364847e-14 6.055970005990185e-10  0.
-2.0929801731260172e-13 6.053953067247472e-10  0.
-5.145901690488978e-13 6.048785099010857e-10  0.
-1.1566923979818275e-12 6.036709110107476e-10  0.
-2.3908423274258906e-12 6.010816225932867e-10  0.
-4.567316795271519e-12 5.959597998398545e-10  0.
-8.098825016961242e-12 5.865700250745793e-10  0.
-1.3379981277990786e-11 5.705524738311103e-10  0.
-2.066024275924884e-11 5.450419949173741e-10  0.
-2.989827752235361e-11 5.06999809898377e-10  0.
-4.065883612580857e-11 4.5377247916892596e-10  0.
-5.23889361196654e-11 3.841092482859076e-10  0.
-6.969424629184114e-11 3.0472667050192383e-10  0.
-1.8070175090032023e-10 3.217346158145481e-10  0.
0.0 3.744968018292524e-09  0.
-5.506331699977642e-17 3.7449679886751235e-09  0.
-3.425618953566346e-16 3.7449677668992175e-09  0.
-1.8218427523137593e-15 3.744966510264456e-09  0.
-8.430360969448086e-15 3.7449603343104314e-09  0.
-3.4099796094092855e-14 3.744933866606569e-09  0.
-1.2144742759057575e-13 3.744834326884708e-09  0.
-3.841348870495319e-13 3.744503048194936e-09  0.
-1.0882891820148142e-12 3.7435189050055155e-09  0.
-2.7839980194129046e-12 3.740887267920261e-09  0.
-6.476930830409529e-12 3.734505134441522e-09  0.
-1.3791494658733903e-11 3.720373338218737e-09  0.
-2.702633839445438e-11 3.691635087725508e-09  0.
-4.897621307670004e-11 3.6376877008729996e-09  0.
-8.241304484294246e-11 3.5437935520725797e-09  0.
-1.2923088621639315e-10 3.391699457388523e-09  0.
-1.8941928766822107e-10 3.1616702026822344e-09  0.
-2.603346685412925e-10 2.8361159173232567e-09  0.
-3.3878592971757277e-10 2.4067446292871623e-09  0.
-4.574008661312558e-10 1.9206352477279e-09  0.
-1.1578061754844098e-09 2.04707392487662e-09  0.
0.0 1.9954273723730095e-08  0.
-1.6898401876309541e-16 1.995427363945408e-08  0.
-1.1153841633365016e-15 1.9954272974448377e-08  0.
-6.317866562160701e-15 1.995426896200364e-08  0.
-3.1133112044970875e-14 1.9954247937995472e-08  0.
-1.3374263379068066e-13 1.9954152054786194e-08  0.
-5.035331428167808e-13 1.9953769844775843e-08  0.
-1.6743043385410732e-12 1.995242879407259e-08  0.
-4.958098533628137e-12 1.994825272638899e-08  0.
-1.3183849449852995e-11 1.9936614051357607e-08  0.
-3.171784374298589e-11 1.9907353769379353e-08  0.
-6.951080416620923e-11 1.9840521541682273e-08  0.
-1.3960203411158332e-10 1.9700956805158214e-08  0.
-2.582869712178095e-10 1.9433002437821686e-08  0.
-4.422525500536532e-10 1.8957719981418334e-08  0.
-7.035860028903162e-10 1.817558748344621e-08  0.
-1.0436365815231946e-09 1.697718136962431e-08  0.
-1.4486776855974983e-09 1.52634011525848e-08  0.
-1.9041234426326593e-09 1.2989290679434505e-08  0.
-2.612486240374607e-09 1.0445718502923982e-08  0.
-6.420470141064312e-09 1.1263973756086213e-08  0.
0.0 9.04234325773632e-08  0.
-4.696716327212513e-16 9.042343236090797e-08  0.
-3.268943094323393e-15 9.042343057123174e-08  0.
-1.9596348597225874e-14 9.042341914907162e-08  0.
-1.022707685689776e-13 9.042335574294957e-08  0.
-4.645841800232103e-13 9.042304958113194e-08  0.
-1.8427463345533204e-12 9.042176146490964e-08  0.
-6.422361007738525e-12 9.041701426080856e-08  0.
-1.9826249449458865e-11 9.040157095342887e-08  0.
-5.4659363171277435e-11 9.035685686664693e-08  0.
-1.3565170702192672e-10 9.024068427181246e-08  0.
-3.052353932714663e-10 8.996780311860934e-08  0.
-6.267776525766504e-10 8.93843509329417e-08  0.
-1.1812181084102216e-09 8.824197261321769e-08  0.
-2.053439216970466e-09 8.618274243176157e-08  0.
-3.307377287760669e-09 8.274934682819082e-08  0.
-4.95518507789333e-09 7.743302776374943e-08  0.
-6.9365877802041175e-09 6.976951059696969e-08  0.
-9.205372939608091e-09 5.957121037170098e-08  0.
-1.2851017967933832e-08 4.840856790449298e-08  0.
-3.0446617922338896e-08 5.296858288680412e-08  0.
0.0 3.430339972655414e-07  0.
-1.190835944391554e-15 3.4303399676039054e-07  0.
-8.688106580906848e-15 3.4303399240628295e-07  0.
-5.4783589455397995e-14 3.4303396319969506e-07  0.
-3.010775715387857e-13 3.430337924857162e-07  0.
-1.43918687157804e-12 3.430329246196442e-07  0.
-5.989222272950156e-12 3.4302908901496914e-07  0.
-2.1796041282529106e-11 3.430143061895211e-07  0.
-6.986773339864776e-11 3.4296430185009913e-07  0.
-1.98920763101077e-10 3.4281461822794557e-07  0.
-5.071435144547817e-10 3.4241479008973067e-07  0.
-1.1668082757854869e-09 3.414540248110604e-07  0.
-2.4393912217544437e-09 3.3936205279351187e-07  0.
-4.663452972536013e-09 3.352071911064976e-07  0.
-8.197361219052403e-09 3.2763609331854326e-07  0.
-1.33155635681863e-08 3.149113606022638e-07  0.
-2.0079193833630563e-08 2.9509663606366333e-07  0.
-2.826676229857058e-08 2.6644088847102315e-07  0.
-3.7835774761937625e-08 2.2843574875245564e-07  0.
-5.380089218910054e-08 1.8841031763921563e-07  0.
-1.2175516897489762e-07 2.1001065938894897e-07  0.
0.0 1.0689503156341707e-06  0.
-2.7693844779637205e-15 1.0689503145582415e-06  0.
-2.1064107808706796e-14 1.0689503049360982e-06  0.
-1.3890908217713193e-13 1.0689502374949326e-06  0.
-7.994467245103267e-13 1.0689498248557611e-06  0.
-4.0008476660974635e-12 1.0689476283129296e-06  0.
-1.7391006002042622e-11 1.068937481099677e-06  0.
-6.581515532391289e-11 1.0688967685413317e-06  0.
-2.1811743329523384e-10 1.0687542538833122e-06  0.
-6.381358819099325e-10 1.068315733148244e-06  0.
-1.66229238656513e-09 1.0671192582829589e-06  0.
-3.887329780790358e-09 1.0641998097783008e-06  0.
-8.223629268220284e-09 1.0577774485547043e-06  0.
-1.584595525699753e-08 1.0449473553139162e-06  0.
-2.7985794091485412e-08 1.0215163890352331e-06  0.
-4.556004650430473e-08 9.821641224014694e-07  0.
-6.87484524056373e-08 9.210647881105985e-07  0.
-9.686592642518986e-08 8.331917705937587e-07  0.
-1.3052683772320656e-07 7.184309001243684e-07  0.
-1.8913850377867372e-07 6.059097461515326e-07  0.
-4.040041861883621e-07 6.914843593312718e-07  0.
0.0 2.676768182915074e-06  0.
-5.927977572576599e-15 2.676768180821124e-06  0.
-4.6771955871845425e-14 2.676768161475868e-06  0.
-3.208607181425722e-13 2.6767680205494647e-06  0.
-1.923537293367031e-12 2.6767671228172897e-06  0.
-1.0027921598137117e-11 2.676762145219095e-06  0.
-4.532538302253302e-11 2.676738225510839e-06  0.
-1.7763809952913197e-10 2.6766387623001937e-06  0.
-6.060162615591863e-10 2.676280116059699e-06  0.
-1.8126242450286799e-09 2.6751519326757167e-06  0.
-4.7951693807409105e-09 2.672029662092518e-06  0.
-1.1318237847977093e-08 2.664358769500362e-06  0.
-2.403838000621358e-08 2.6474802561994792e-06  0.
-4.629274226917401e-08 2.61394611382621e-06  0.
-8.141620610122576e-08 2.5533301452619184e-06  0.
-1.3164100282462396e-07 2.4529446907151054e-06  0.
-1.9704223320798902e-07 2.2997115440561703e-06  0.
-2.7586357538203884e-07 2.083966032912255e-06  0.
-3.7306917731556633e-07 1.8130990550520357e-06  0.
-5.503790690185112e-07 1.5836474907914005e-06  0.
-1.0925621276355594e-06 1.8612331008329822e-06  0.
0.0 5.279786893843236e-06  0.
-1.1705803145687744e-14 5.2797868901229e-06  0.
-9.536898146535882e-14 5.279786854755721e-06  0.
-6.772296342431654e-13 5.279786588252831e-06  0.
-4.2079607512946425e-12 5.279784829494497e-06  0.
-2.2741933760256222e-11 5.279774721766685e-06  0.
-1.064087955458954e-10 5.279724428569108e-06  0.
-4.30129551379162e-10 5.279508605946388e-06  0.
-1.5043955439197822e-09 5.278710311336441e-06  0.
-4.5781305983827246e-09 5.276155978556205e-06  0.
-1.2225325367128896e-08 5.269032781248945e-06  0.
-2.8914735564678736e-08 5.2515602072469745e-06  0.
-6.112203201250687e-08 5.213516721015478e-06  0.
-1.1650042500670004e-07 5.139315985080963e-06  0.
-2.018309810862606e-07 5.008597256508671e-06  0.
-3.2041379852402403e-07 4.79892094987516e-06  0.
-4.7021313356494367e-07 4.490801379222833e-06  0.
-6.477127481091815e-07 4.077630822298936e-06  0.
-8.753128874280606e-07 3.6041864895264134e-06  0.
-1.3089057572777068e-06 3.3296431716562196e-06  0.
-2.3688041518779984e-06 4.046061020689626e-06  0.
0.0 8.194112977344229e-06  0.
-2.139087063643976e-14 8.194112971297998e-06  0.
-1.7920105845843384e-13 8.194112912368032e-06  0.
-1.31128878213606e-12 8.194112455057393e-06  0.
-8.40557411070122e-12 8.194109342778516e-06  0.
-4.687938263466519e-11 8.194090887810434e-06  0.
-2.2609425177865165e-10 8.19399622051377e-06  0.
-9.38965693811964e-10 8.19357863326054e-06  0.
-3.354383558557409e-09 8.19200008190396e-06  0.
-1.0341852234038474e-08 8.18688360115181e-06  0.
-2.7722768718572905e-08 8.172589270884679e-06  0.
-6.524277080828488e-08 8.137863700449562e-06  0.
-1.3612730319507915e-07 8.063795883655708e-06  0.
-2.542537186800118e-07 7.92381187482037e-06  0.
-4.291234142236411e-07 7.687238109281452e-06  0.
-6.60597992894067e-07 7.32700842632968e-06  0.
-9.385426274029075e-07 6.830919784310674e-06  0.
-1.2584662896570071e-06 6.226004825733694e-06  0.
-1.6914935921215173e-06 5.66953182138493e-06  0.
-2.533202745947328e-06 5.701290168131331e-06  0.
-4.0979126572430915e-06 7.1177646831587e-06  0.
0.0 1.0535649748720454e-05  0.
-3.636342122556248e-14 1.053564973966977e-05  0.
-3.1206394179226396e-13 1.0535649649536899e-05  0.
-2.3434569071385097e-12 1.0535648932149295e-05  0.
-1.543229884193808e-11 1.0535643918716089e-05  0.
-8.844771817097621e-11 1.0535613376059901e-05  0.
-4.3795972875038703e-10 1.0535452511604291e-05  0.
-1.8620403268454224e-09 1.0534725764352268e-05  0.
-6.772570928726535e-09 1.0531927071715597e-05  0.
-2.1081601419531734e-08 1.0522767855290014e-05  0.
-5.646894336348903e-08 1.0497245853617048e-05  0.
-1.3140730574355387e-07 1.0436260727158703e-05  0.
-2.685648927758426e-07 1.0310044477900361e-05  0.
-4.87208153941654e-07 1.0081571024375578e-05  0.
-7.933006159143305e-07 9.716415715030035e-06  0.
-1.1723042824339835e-06 9.197678228581122e-06  0.
-1.597656363543831e-06 8.546448538839094e-06  0.
-2.0750437745384455e-06 7.8751490353932e-06  0.
-2.7686800049672644e-06 7.558355496766041e-06  0.
-4.058687958552009e-06 8.399357992829253e-06  0.
-5.815555667555749e-06 1.044147608990873e-05  0.
0.0 1.2616464092214309e-05  0.
-5.777791667701316e-14 1.261646407969882e-05  0.
-5.06209173633224e-13 1.261646395274373e-05  0.
-3.886919425212504e-12 1.2616462920192694e-05  0.
-2.619620044360747e-11 1.2616455538834111e-05  0.
-1.5370783123060712e-10 1.2616409516793564e-05  0.
-7.786325588733083e-10 1.2616161556758283e-05  0.
-3.3784093084211556e-09 1.2615018000799314e-05  0.
-1.2477376188759418e-08 1.2610543726292917e-05  0.
-3.9115373998584135e-08 1.2595792836080398e-05  0.
-1.0435010530159334e-07 1.2554918148885453e-05  0.
-2.3892136734596045e-07 1.2459355311641031e-05  0.
-4.752508870532191e-07 1.226901168614428e-05  0.
-8.316200397658065e-07 1.1942335343509416e-05  0.
-1.2971905301958766e-06 1.1454447825083224e-05  0.
-1.8325448203581933e-06 1.0815539088742548e-05  0.
-2.3973278085009717e-06 1.0101865966647918e-05  0.
-3.0499282124779532e-06 9.55297069162246e-06  0.
-4.062292505731032e-06 9.786790279810018e-06  0.
-5.6712725097607655e-06 1.1479937398991205e-05  0.
-7.3200830519412095e-06 1.3488705153998366e-05  0.
0.0 1.5159863040910362e-05  0.
-8.595174379848888e-14 1.5159863025042655e-05  0.
-7.663661508599059e-13 1.5159862861532689e-05  0.
-5.9964280985883224e-12 1.5159861506966467e-05  0.
-4.1214675034509875e-11 1.515985163494081e-05  0.
-2.467045236769318e-10 1.5159788856350585e-05  0.
-1.2742241556156963e-09 1.5159443981332112e-05  0.
-5.625666006313283e-09 1.5157825071936519e-05  0.
-2.1048580256944586e-08 1.5151404244275589e-05  0.
-6.633487980660636e-08 1.5130113432815066e-05  0.
-1.7589841449329377e-07 1.5071535695065948e-05  0.
-3.9493355612860283e-07 1.4937987319289442e-05  0.
-7.609469833061414e-07 1.4683731310748458e-05  0.
-1.2788755730696161e-06 1.4273443351380543e-05  0.
-1.9072219273172682e-06 1.370426342877126e-05  0.
-2.58509659051333e-06 1.302263534349743e-05  0.
-3.3007184835773786e-06 1.2363432043616263e-05  0.
-4.218888319084999e-06 1.210898304827233e-05  0.
-5.653008879447109e-06 1.294356666719242e-05  0.
-7.4069434068880085e-06 1.4768907815755364e-05  0.
-8.901344973698613e-06 1.6037668215023776e-05  0.
0.0 1.760039199874452e-05  0.
-1.1987446410183576e-13 1.7600391980411858e-05  0.
-1.0844647763369556e-12 1.760039178901954e-05  0.
-8.618772937320636e-12 1.7600390179083647e-05  0.
-6.021002523124774e-11 1.7600378256615596e-05  0.
-3.664258503698557e-10 1.7600301184724168e-05  0.
-1.9233978562579236e-09 1.7599870884089065e-05  0.
-8.615703746288947e-09 1.759782086409728e-05  0.
-3.258430248566154e-08 1.758959723963598e-05  0.
-1.0308641151595262e-07 1.756220561325167e-05  0.
-2.714305468699477e-07 1.7487416859914325e-05  0.
-5.965959890644452e-07 1.732136295015678e-05  0.
-1.1101277830408887e-06 1.7020585553634195e-05  0.
-1.7891238077347731e-06 1.6567240202457397e-05  0.
-2.5625416368305542e-06 1.59827195879562e-05  0.
-3.377181311334908e-06 1.5340029605390244e-05  0.
-4.321137037396726e-06 1.4835154145873569e-05  0.
-5.640980227420233e-06 1.4972017476102235e-05  0.
-7.488382002850725e-06 1.6186200909068964e-05  0.
-9.217362230359389e-06 1.74498807653976e-05  0.
-1.052702216150591e-05 1.8141167622229368e-05  0.
0.0 1.9848210185528738e-05  0.
-1.570891675085083e-13 1.984821016636423e-05  0.
-1.4378419113991958e-12 1.9848209964195712e-05  0.
-1.1571519411167218e-11 1.9848208242832202e-05  0.
-8.190290368682723e-11 1.984819533162719e-05  0.
-5.051404732780328e-10 1.9848110769226064e-05  0.
-2.686330506463536e-09 1.9847632505615837e-05  0.
-1.2175164702561872e-08 1.984532681852779e-05  0.
-4.6446913299710195e-08 1.983599309025815e-05  0.
-1.4735353430809793e-07 1.9804798748316463e-05  0.
-3.852457799513879e-07 1.9720251530761677e-05  0.
-8.290884661344048e-07 1.953727175900834e-05  0.
-1.4890865794436924e-06 1.9222356627598105e-05  0.
-2.304429371884457e-06 1.878083093566483e-05  0.
-3.2038960164415806e-06 1.82485248337549e-05  0.
-4.189516939097472e-06 1.7706820831145014e-05  0.
-5.4535769267261445e-06 1.7426951912772787e-05  0.
-7.183405969387419e-06 1.7908219771778614e-05  0.
-9.065841828503523e-06 1.908609836169308e-05  0.
-1.05543145568821e-05 1.974864683684256e-05  0.
-1.174616066898559e-05 2.0567623466810373e-05  0.
0.0 2.234164889719135e-05  0.
-1.936203206687539e-13 2.234164887953755e-05  0.
-1.788188097348819e-12 2.2341648691788956e-05  0.
-1.4530323624251638e-11 2.234164707801689e-05  0.
-1.038844466132167e-10 2.2341634853171818e-05  0.
-6.473206133914717e-10 2.2341553966774788e-05  0.
-3.4772086889344234e-09 2.234109186066873e-05  0.
-1.590309563257509e-08 2.233884331437898e-05  0.
-6.107634218115063e-08 2.2329675412378755e-05  0.
-1.9415603386244667e-07 2.2298953193833647e-05  0.
-5.044469557807922e-07 2.2216191977373562e-05  0.
-1.0653991585125173e-06 2.2041004275290996e-05  0.
-1.8520986420620765e-06 2.175354439692072e-05  0.
-2.7654733948192806e-06 2.137842686288283e-05  0.
-3.78426150168744e-06 2.0952492875495427e-05  0.
-4.994825668848167e-06 2.05516388258472e-05  0.
-6.5461372308532955e-06 2.050045315173505e-05  0.
-8.410774046513454e-06 2.1141942295065716e-05  0.
-9.92729368020705e-06 2.18962007910941e-05  0.
-1.1198577104712002e-05 2.2215912525411455e-05  0.
-1.2507154028862844e-05 2.315862738258986e-05  0.
0.0 2.466460488292158e-05  0.
-2.246548495757568e-13 2.4664604869293805e-05  0.
-2.08801669827238e-12 2.466460472353996e-05  0.
-1.70825621226946e-11 2.46646034624353e-05  0.
-1.2300295329113346e-10 2.466459384271332e-05  0.
-7.72035370030113e-10 2.4664529738103914e-05  0.
-4.176763930759714e-09 2.4664160908402677e-05  0.
-1.9225750325444527e-08 2.466235448432965e-05  0.
-7.418881277993463e-08 2.4654951876619777e-05  0.
-2.361583473145069e-07 2.4630098594319696e-05  0.
-6.106069518369286e-07 2.45634517576767e-05  0.
-1.2706685019712456e-06 2.442475778923144e-05  0.
-2.1512958791710846e-06 2.4205851447277565e-05  0.
-3.123752694162075e-06 2.393788357854204e-05  0.
-4.254332722825776e-06 2.3650560504540065e-05  0.
-5.698143152957722e-06 2.3401789829780584e-05  0.
-7.355969190239884e-06 2.347497922225871e-05  0.
-9.014267251381633e-06 2.4022811139135024e-05  0.
-1.03643188182758e-05 2.4369382153953847e-05  0.
-1.1659373770321364e-05 2.4584331769503618e-05  0.
-1.294730004237742e-05 2.5125944143098732e-05  0.
0.0 2.7072633811900463e-05  0.
-2.455586730164707e-13 2.707263380446032e-05  0.
-2.2909543015752723e-12 2.7072633724613623e-05  0.
-1.8819067824278017e-11 2.7072633031012223e-05  0.
-1.3608222796764982e-10 2.7072627718174336e-05  0.
-8.578353467914023e-10 2.7072592162606684e-05  0.
-4.660718619179545e-09 2.7072386724285768e-05  0.
-2.1536076319517e-08 2.7071376611564548e-05  0.
-8.334083201878333e-08 2.706722469154242e-05  0.
-2.6550117260845347e-07 2.7053269795868413e-05  0.
-6.843910019822992e-07 2.7015953693805946e-05  0.
-1.4108686803031012e-06 2.6939125369734702e-05  0.
-2.3478948667707756e-06 2.6820948706752667e-05  0.
-3.3492371896337816e-06 2.6682775939208614e-05  0.
-4.5623635612444766e-06 2.6541447323756472e-05  0.
-6.16994545387738e-06 2.6429957398962708e-05  0.
-7.793940830232468e-06 2.6499655680649032e-05  0.
-9.224850896064663e-06 2.6772440856279312e-05  0.
-1.0697701639484116e-05 2.6933059932659663e-05  0.
-1.2002688219000092e-05 2.7105678202446533e-05  0.
-1.3254041054444402e-05 2.7230290169599163e-05  0.
0.0 2.9449999999999913e-05  0.
-2.529405256388965e-13 2.9449999999999913e-05  0.
-2.362792236762225e-12 2.9449999999999913e-05  0.
-1.943537250245422e-11 2.9449999999999913e-05  0.
-1.4073682917071606e-10 2.9449999999999913e-05  0.
-8.884546893896853e-10 2.9449999999999913e-05  0.
-4.833902205219404e-09 2.9449999999999913e-05  0.
-2.2364899095480935e-08 2.9449999999999913e-05  0.
-8.66301685392058e-08 2.9449999999999913e-05  0.
-2.7605141883359127e-07 2.9449999999999913e-05  0.
-7.108491366248171e-07 2.9449999999999913e-05  0.
-1.4606878887623112e-06 2.9449999999999913e-05  0.
-2.416317653861292e-06 2.9449999999999913e-05  0.
-3.4259243818658514e-06 2.9449999999999913e-05  0.
-4.669388705313702e-06 2.9449999999999913e-05  0.
-6.332318028992064e-06 2.9449999999999913e-05  0.
-7.9262915861972e-06 2.9449999999999913e-05  0.
-9.294632956700424e-06 2.9449999999999913e-05  0.
-1.0825970306109978e-05 2.9449999999999913e-05  0.
-1.2077947761344675e-05 2.9449999999999913e-05  0.
-1.3423118731471872e-05 2.9449999999999913e-05  0.
</DataArray>
<DataArray type="Float64" Name="sigma_xx" NumberOfComponents="1" format="ascii" >
46.892068406023654 
46.89205500563175 
46.891981475560826 
46.89170293170618 
46.89077151009967 
46.88796269025629 
46.88026892241125 
46.860974756146575 
46.81639372838829 
46.720949120615515 
46.53069333171443 
46.176101176076386 
45.55597088451434 
44.53514427238402 
42.94917120839513 
40.61833255297741 
37.37124469882501 
33.069602389801375 
27.523024925812923 
18.364894993627694 
12.324330000978986 
232.5575516382016 
232.5575119921374 
232.5572883432602 
232.55638755270695 
232.55319045456514 
232.54302810027374 
232.5138454217778 
232.43753408674897 
232.2545419042309 
231.84969624168156 
231.01896344246416 
229.4306922223654 
226.59018756310263 
221.8220563066086 
214.28755360708425 
203.05178211332813 
187.20446428033273 
165.9986188645712 
138.52691686244697 
95.33327544608557 
67.58971045628388 
1665.9846700850517 
1665.9844996436132 
1665.9834914167777 
1665.9791596651535 
1665.9628362392093 
1665.9081158998383 
1665.7434660616304 
1665.2950098838821 
1664.180981275631 
1661.6399733271332 
1656.2872163172756 
1645.8201950370062 
1626.7369893324662 
1594.1744256897643 
1542.001182835983 
1463.2849739126814 
1351.1728688880835 
1199.9034742055098 
1002.2471218423808 
689.8489865098109 
489.0606490448588 
10246.8529059152 
10246.85226290178 
10246.848258538274 
10246.829969084987 
10246.756984094714 
10246.499423977037 
10245.688536758553 
10243.391237485519 
10237.487308795142 
10223.624164532039 
10193.690388876628 
10133.92176483496 
10023.023002531103 
9830.99290879363 
9519.532014995442 
9044.841509317499 
8363.079853471176 
7436.436167299052 
6214.0277351102595 
4258.029662412841 
2995.7170690209073 
54176.77074603942 
54176.76857918939 
54176.754413087765 
54176.68588447165 
54176.39710563747 
54175.32662499445 
54171.80711134727 
54161.455528778366 
54133.98969248415 
54067.73985852096 
53921.45429032878 
53623.933611962595 
53063.539042780256 
52081.33440111061 
50472.724485520186 
48002.05035573045 
44431.44342566318 
39550.46644772419 
33049.965901094096 
22513.37031920763 
15685.341541454834 
242714.3384640228 
242714.33188352553 
242714.2868870468 
242714.05737646407 
242713.03983276474 
242709.09002112583 
242695.5706726296 
242654.4212591807 
242542.08795507206 
242264.77969572216 
241641.09285659253 
240354.42521788122 
237904.94010259557 
233578.5062071437 
226455.0138388887 
215475.1779489066 
199568.77054912163 
177764.07416603685 
148461.20155015404 
100328.51739857902 
69008.41539537735 
904815.7977490588 
904815.7796046783 
904815.650350643 
904814.9585161033 
904811.744804462 
904798.7287984862 
904752.5154158294 
904607.5444320592 
904202.2226428245 
903183.5283730524 
900863.246114 
896038.3368138534 
886816.3676824301 
870516.6481412144 
843727.0777351509 
802577.8720858938 
743208.8583747246 
662011.5880020758 
552033.0782620928 
368978.2417341579 
249409.132489775 
2741529.4032166796 
2741529.357517169 
2741529.019712895 
2741527.1313354634 
2741517.980127194 
2741479.454697584 
2741338.0961644603 
2740883.0445778207 
2739586.88972512 
2736291.058593467 
2728744.72990977 
2713060.0897909575 
2683246.024874663 
2631055.179330043 
2546368.3980039246 
2418195.294768892 
2236021.7022209438 
1989574.270792179 
1653851.0415062318 
1088159.8350930773 
717572.26528622 
6543169.37650655 
6543169.270915469 
6543168.464168256 
6543163.775930881 
6543140.1763520725 
6543037.305873421 
6542648.674762125 
6541370.324951929 
6537680.891273532 
6528254.422503879 
6506742.138213973 
6462510.225755993 
6379909.567624087 
6238719.379887862 
6016151.629689977 
5690040.45456323 
5241560.210038794 
4650051.163462287 
3842092.1585229095 
2467972.6755386726 
1567220.800969248 
11816552.543976417 
11816552.319506109 
11816550.553459 
11816539.93204292 
11816484.631129827 
11816235.997847669 
11815272.369385418 
11812046.368067317 
11802661.922967624 
11778738.725688916 
11724813.75715955 
11616398.151264315 
11420349.52687595 
11098984.85729568 
10617552.771368392 
9952438.03523946 
9092775.306401271 
8013398.838303198 
6539484.4881729 
4032663.434824092 
2399550.1223430736 
15491318.495143708 
15491318.054672627 
15491314.4985402 
15491292.456246758 
15491174.229834981 
15490627.982865619 
15488463.288992826 
15481113.292593243 
15459661.03082852 
15405459.112260673 
15285880.69379823 
15053628.861183073 
14653404.889561487 
14037270.75276702 
13184300.285906678 
12113548.549184354 
10870709.649966188 
9437821.230748534 
7476194.423427343 
4242334.7238952 
2195305.555977598 
14755548.80466587 
14755548.003007624 
14755541.382386377 
14755499.246217087 
14755267.2653396 
14754169.380838746 
14749733.367246246 
14734497.981213719 
14690037.714840135 
14579320.442320973 
14342288.501690634 
13902830.735686803 
13193198.02803352 
12190803.398803411 
10950990.643018331 
9605145.959776437 
8291563.516747171 
6946197.839304255 
5028210.748947943 
2258710.3743766802 
696235.5819256837 
12410057.949405037 
12410056.58955859 
12410045.13412254 
12409970.525242783 
12409550.263303425 
12407518.866833143 
12399170.116210965 
12370223.921148935 
12285962.853421967 
12080035.721198473 
11655545.608941287 
10913248.630196638 
9809692.793139739 
8417857.867010066 
6942842.741836804 
5651398.6089334255 
4668302.249631923 
3670495.4708396615 
1968085.6745597837 
248914.14994305608 
-349012.11793235876 
12978032.856403217 
12978030.700369464 
12978012.223777574 
12977889.464743515 
12977184.155946065 
12973711.854051322 
12959228.994556407 
12908622.307547221 
12761909.988136426 
12411138.744825616 
11719954.633706335 
10594688.856843738 
9085133.35869847 
7441817.638969652 
6034103.5514959 
5132674.772555904 
4556893.715942718 
3506036.370714194 
1507592.1037862513 
71007.25406822603 
-146822.3791178023 
13989787.388712011 
13989784.187705169 
13989756.353499072 
13989568.269017885 
13988469.298793962 
13982973.770517534 
13959762.483651757 
13878143.565900866 
13642720.928673124 
13093108.067970568 
12064197.590530425 
10526710.66120384 
8709554.992250813 
7071098.122547853 
6021919.024184788 
5520477.3882201305 
4862926.228984915 
3054341.878594485 
695926.036132741 
-422602.12371952797 
-493045.686197598 
13158195.57598596 
13158191.11665161 
13158151.867535796 
13157882.892531835 
13156289.094231155 
13148214.416764084 
13113749.882555656 
12991943.154927123 
12642467.446029495 
11845957.629251981 
10434646.672984041 
8526478.35738388 
6596101.748511446 
5211016.861058959 
4560488.411739191 
4022254.2279132884 
2585891.950516667 
64101.021248592064 
-1572895.5053433347 
-1076965.8646064876 
-409831.08725645905 
13307073.469643857 
13307067.631801087 
13307015.743789732 
13306656.09496003 
13304500.729330225 
13293464.902544422 
13245958.803483576 
13077383.459641509 
12596147.456855644 
11523792.6074103 
9726127.437123578 
7554156.999263715 
5741069.7939218115 
4713367.0351353595 
4159587.1588491225 
3073825.3659933317 
807675.6512180428 
-1207135.6008711755 
-1298304.6353631143 
-21928.732933157065 
754669.7778297504 
13518420.572265163 
13518413.382291395 
13518348.992682215 
13517898.779913101 
13515177.0341068 
13501127.176456649 
13440247.86852442 
13223560.152674861 
12607646.115729682 
11261710.669658428 
9118450.967591472 
6818678.979807083 
5305130.095269314 
4552747.15667078 
3623420.5631865547 
1919898.4608485012 
-265643.0095692384 
-817760.1919406917 
62771.84003174762 
166754.7994681194 
-43462.77567464311 
13278100.70341831 
13278092.364834037 
13278017.288871823 
13277489.101783695 
13274276.163128722 
13257594.469624601 
13184972.848386206 
12925938.631175049 
12192082.119790632 
10612367.77081772 
8200620.311689718 
5884657.329181874 
4734119.103598938 
4079488.460629213 
2456846.67172161 
559880.8730296553 
-499267.7880673202 
-312003.62687047163 
361791.71973754774 
-119607.05509018671 
-757220.9429036878 
13431165.153618703 
13431156.041839622 
13431073.742420161 
13430492.595590834 
13426944.431942087 
13408458.409392428 
13327756.737815073 
13039536.694315769 
12224673.506851522 
10487152.674702045 
7907222.381242757 
5624696.362035991 
4763061.985181757 
4082670.5200190824 