<?xml version="1.0"?>
<VTKFile type="UnstructuredGrid" version="0.1" byte_order="LittleEndian" compressor="vtkZLibDataCompressor">
<UnstructuredGrid>
<Piece NumberOfPoints="441" NumberOfCells="400">
<PointData>
<DataArray type="Float64" Name="displacement" NumberOfComponents="3" format="ascii" >
0.0 1.9245441920149238e-08  0.
-2.3242315321356336e-14 1.9245426082217546e-08  0.
-8.312867367191365e-14 1.924535318851601e-08  0.
-2.5642922895100715e-13 1.924511882489256e-08  0.
-7.255183133251923e-13 1.9244436488644165e-08  0.
-1.897683594111897e-12 1.9242602649288213e-08  0.
-4.6080678213882985e-12 1.923803030489991e-08  0.
-1.0426268376399042e-11 1.9227414439192516e-08  0.
-2.2055063320124874e-11 1.92043852163133e-08  0.
-4.3749914505333e-11 1.915756333812909e-08  0.
-8.160739897796949e-11 1.906809300693618e-08  0.
-1.4349608272123048e-10 1.8907003105445487e-08  0.
-2.3838186544531666e-10 1.863309414956461e-08  0.
-3.748780563894459e-10 1.8192356155815644e-08  0.
-5.590561916718885e-10 1.752002520903404e-08  0.
-7.918604500434006e-10 1.6546124293369614e-08  0.
-1.0668285255246276e-09 1.5204693764180152e-08  0.
-1.3694400750675784e-09 1.3446766747467006e-08  0.
-1.6822666095172903e-09 1.1273489880873114e-08  0.
-2.0818523008427036e-09 8.955505212753491e-09  0.
-3.864345843936309e-09 9.213833814665842e-09  0.
0.0 4.3341034994060266e-08  0.
-4.558694113297153e-14 4.334100808343933e-08  0.
-1.669698961678929e-13 4.334088085506953e-08  0.
-5.279434923518775e-13 4.334045770450226e-08  0.
-1.5280323399060501e-12 4.3339185797228725e-08  0.
-4.079026909339182e-12 4.333566861632868e-08  0.
-1.0085832024486505e-11 4.332667570642506e-08  0.
-2.3187463953636054e-11 4.330533008914755e-08  0.
-4.9739600425455943e-11 4.325812296385342e-08  0.
-9.987364692523721e-11 4.3160522532472894e-08  0.
-1.8826285673202995e-10 4.297130267296929e-08  0.
-3.340342193600473e-10 4.262635274098731e-08  0.
-5.591978400599108e-10 4.2033551924715533e-08  0.
-8.851562785689157e-10 4.107103736087105e-08  0.
-1.3273562606511751e-09 3.9591475901310835e-08  0.
-1.8889185043757355e-09 3.743439266233775e-08  0.
-2.555121057563032e-09 3.4447283329680647e-08  0.
-3.2944407209657933e-09 3.0517738868795035e-08  0.
-4.107631768083611e-09 2.5659985038462662e-08  0.
-5.489017626926604e-09 2.0683459669675463e-08  0.
-1.2058964059810734e-08 2.2393657972826166e-08  0.
0.0 1.550885499937762e-07  0.
-1.5216053292399746e-13 1.5508846934989462e-07  0.
-5.719782444121816e-13 1.550880803833253e-07  0.
-1.856880540612101e-12 1.5508675434109575e-07  0.
-5.503275631498176e-12 1.5508267647558163e-07  0.
-1.4998637973681816e-11 1.5507117322824718e-07  0.
-3.775645450500154e-11 1.5504125574849336e-07  0.
-8.814299187925359e-11 1.549692167092382e-07  0.
-1.9154287956338582e-10 1.5480798923770328e-07  0.
-3.887956889870168e-10 1.5447140067553448e-07  0.
-7.394754650758573e-10 1.5381376893948136e-07  0.
-1.3216668658017711e-09 1.5260762020539436e-07  0.
-2.2256302465851217e-09 1.5052527934370184e-07  0.
-3.5395485140991763e-09 1.471327176252885e-07  0.
-5.327685019156517e-09 1.419048946861597e-07  0.
-7.604439223508363e-09 1.3426970467849055e-07  0.
-1.0312232241733874e-08 1.2368346308167245e-07  0.
-1.3328523607119537e-08 1.0975171284102281e-07  0.
-1.668281796910909e-08 9.26016040799409e-08  0.
-2.2468866713061923e-08 7.542866370972327e-08  0.
-4.885338932990852e-08 8.362937812816266e-08  0.
0.0 4.972176363660596e-07  0.
-4.620752909121493e-13 4.972174068465547e-07  0.
-1.7780338975073099e-12 4.972162786462738e-07  0.
-5.907866848626277e-12 4.972123435862187e-07  0.
-1.786883763720803e-11 4.971999925008392e-07  0.
-4.95433147074695e-11 4.971645508401397e-07  0.
-1.2649452766264428e-10 4.970710964451951e-07  0.
-2.9867742698602757e-10 4.968436514101553e-07  0.
-6.54809809450659e-10 4.963306120121227e-07  0.
-1.3379078582573356e-09 4.952538688797412e-07  0.
-2.5564025764501787e-09 4.931436429913416e-07  0.
-4.582472460873213e-09 4.892688136913147e-07  0.
-7.72866322096354e-09 4.825818914430213e-07  0.
-1.2297226979107609e-08 4.7170525146551296e-07  0.
-1.850453015979026e-08 4.5498624847444377e-07  0.
-2.6393984620698153e-08 4.306404710386509e-07  0.
-3.5767665441017884e-08 3.969919265677658e-07  0.
-4.62436535627562e-08 3.5288595538741166e-07  0.
-5.817140881807045e-08 2.991497448253243e-07  0.
-7.951478163427015e-08 2.4801173116713854e-07  0.
-1.6535947722147148e-07 2.8014057067951145e-07  0.
0.0 1.352255487133378e-06  0.
-1.2916665248905095e-12 1.3522548856983586e-06  0.
-5.0778598320353196e-12 1.3522518778209422e-06  0.
-1.722579279942037e-11 1.3522411721426852e-06  0.
-5.30205994382252e-11 1.3522069824488793e-06  0.
-1.4907454246848023e-10 1.3521075410006915e-06  0.
-3.846579052075522e-10 1.3518427856140407e-06  0.
-9.149577925565791e-10 1.351194569075275e-06  0.
-2.01483934053105e-09 1.349728645008334e-06  0.
-4.124264266569046e-09 1.3466536543636577e-06  0.
-7.876956365455867e-09 1.3406469718558806e-06  0.
-1.4086707772480978e-08 1.3296796297318365e-06  0.
-2.366643148234982e-08 1.3108964006750796e-06  0.
-3.7469262184094895e-08 1.2806208037245387e-06  0.
-5.606655558520546e-08 1.2345470710942176e-06  0.
-7.951169446031147e-08 1.1681496451923462e-06  0.
-1.0719229173921917e-07 1.0773285680043956e-06  0.
-1.3817632149259678e-07 9.59641803212332e-07  0.
-1.7460019735283834e-07 8.193849536847456e-07  0.
-2.422633961791595e-07 6.969141565617148e-07  0.
-4.776671032281529e-07 8.047754204532687e-07  0.
0.0 3.0616231041253405e-06  0.
-3.3341436241643216e-12 3.0616216561627403e-06  0.
-1.3364609356029749e-11 3.0616143004788233e-06  0.
-4.617302719086354e-11 3.0615876515994755e-06  0.
-1.4421849126897963e-10 3.0615013180819565e-06  0.
-4.0985563818697626e-10 3.0612477064974998e-06  0.
-1.064767717676062e-09 3.0605687943546362e-06  0.
-2.540477292529416e-09 3.058904823172961e-06  0.
-5.592268040374731e-09 3.0551535926211066e-06  0.
-1.1406834308444814e-08 3.0473402685535453e-06  0.
-2.164947885045805e-08 3.0322397762865862e-06  0.
-3.83835514547477e-08 3.005049144589265e-06  0.
-6.381111296117438e-08 2.9592511934599614e-06  0.
-9.983418736559384e-08 2.8868134434274266e-06  0.
-1.4751482941523667e-07 2.778803795608366e-06  0.
-2.0659000895505964e-07 2.6264054577802933e-06  0.
-2.7536542143934283e-07 2.422365871405158e-06  0.
-3.5232929627964355e-07 2.1642752713134563e-06  0.
-4.4690926618753945e-07 1.8699248616461158e-06  0.
-6.295403292363855e-07 1.6524219716106765e-06  0.
-1.1642911240800876e-06 1.9578206259139984e-06  0.
0.0 5.683769704866056e-06  0.
-7.954923955622367e-12 5.683766505347412e-06  0.
-3.244814587702906e-11 5.683750021877745e-06  0.
-1.1389649275099249e-10 5.683689380401457e-06  0.
-3.600085930305227e-10 5.683490658132252e-06  0.
-1.0308050673110828e-09 5.682903091829604e-06  0.
-2.6860662716884697e-09 5.681328185743777e-06  0.
-6.400457320997185e-09 5.677483450048961e-06  0.
-1.4013258161400373e-08 5.668894362945151e-06  0.
-2.832226813146937e-08 5.651253663945288e-06  0.
-5.30809451583386e-08 5.617793239043801e-06  0.
-9.265511661644328e-08 5.558922305638872e-06  0.
-1.5127953111033748e-07 5.46242657559522e-06  0.
-2.320171179620229e-07 5.314426157590064e-06  0.
-3.357126656173733e-07 5.101052241393504e-06  0.
-4.6039098094291884e-07 4.810570496044869e-06  0.
-6.020031812647879e-07 4.436156573351712e-06  0.
-7.604048976520499e-07 3.984069726798289e-06  0.
-9.678937826584948e-07 3.513564102094591e-06  0.
-1.381929593931533e-06 3.2873367075607114e-06  0.
-2.3677190619626112e-06 4.000098661053362e-06  0.
0.0 8.636231696089316e-06  0.
-1.7581484547654692e-11 8.636225193207472e-06  0.
-7.283755030995862e-11 8.63619126997537e-06  0.
-2.591637852765817e-10 8.63606482030259e-06  0.
-8.268353159744833e-10 8.635646774190902e-06  0.
-2.3779548413224625e-09 8.63440668010553e-06  0.
-6.1925587203426935e-09 8.631091813916956e-06  0.
-1.4673053756618967e-08 8.62307108848744e-06  0.
-3.179228790027325e-08 8.605420887668437e-06  0.
-6.33043954881139e-08 8.56992855120828e-06  0.
-1.1640633709896875e-07 8.504407255269654e-06  0.
-1.9863081092365012e-07 8.392855980510047e-06  0.
-3.1603271029604054e-07 8.216910339898702e-06  0.
-4.711661451606233e-07 7.95861449596416e-06  0.
-6.616418494669837e-07 7.6039688514260586e-06  0.
-8.803645512464101e-07 7.14648076631221e-06  0.
-1.119655955303589e-06 6.592135374653611e-06  0.
-1.3888347515508828e-06 5.979418345284727e-06  0.
-1.7748507968256879e-06 5.466328387745029e-06  0.
-2.553249572682109e-06 5.539868994866317e-06  0.
-4.003938386259033e-06 6.870477354045556e-06  0.
0.0 1.1102522510878709e-05  0.
-3.617566078646656e-11 1.1102510264569413e-05  0.
-1.5194797510317427e-10 1.1102445668185839e-05  0.
-5.46924568157369e-10 1.1102202181662483e-05  0.
-1.7571678115816661e-09 1.1101391930441871e-05  0.
-5.061922387298801e-09 1.1098987328530591e-05  0.
-1.3129006117642245e-08 1.1092600477266683e-05  0.
-3.080731385147838e-08 1.1077354485322343e-05  0.
-6.573877729859669e-08 1.1044496345524402e-05  0.
-1.2824265500497734e-07 1.0980256747753917e-05  0.
-2.2992834231795146e-07 1.086578810248812e-05  0.
-3.8090768484108186e-07 1.0679016307503962e-05  0.
-5.862513386637918e-07 1.0398655821332996e-05  0.
-8.430415447352669e-07 1.00096430098955e-05  0.
-1.1397704882878186e-06 9.508328530494194e-06  0.
-1.4598239096808552e-06 8.906738701438663e-06  0.
-1.7943207652763493e-06 8.242208274133202e-06  0.
-2.1823628201192265e-06 7.62432888712139e-06  0.
-2.806499710022157e-06 7.384990135373255e-06  0.
-4.013203656757942e-06 8.19373650299493e-06  0.
-5.726690608903072e-06 1.0106587363941472e-05  0.
0.0 1.3127158171456986e-05  0.
-6.969454695751115e-11 1.3127136656757153e-05  0.
-2.9634418461903754e-10 1.3127022047535501e-05  0.
-1.0772343566207945e-09 1.312658590155293e-05  0.
-3.4787568531543415e-09 1.3125127664905488e-05  0.
-1.0014943607538412e-08 1.3120807922181548e-05  0.
-2.5795349406907652e-08 1.3109442249626452e-05  0.
-5.972238983245859e-08 1.3082787254160382e-05  0.
-1.249526217610674e-07 1.30268262566562e-05  0.
-2.375873371624121e-07 1.2921160252687379e-05  0.
-4.1297417997552567e-07 1.2740853686383384e-05  0.
-6.601997914491791e-07 1.2461447268113694e-05  0.
-9.769152604609483e-07 1.20662354791302e-05  0.
-1.3472226249629578e-06 1.155317276359137e-05  0.
-1.7450964775794108e-06 1.0938753831143232e-05  0.
-2.145490915539351e-06 1.0260989474986052e-05  0.
-2.5529200451504546e-06 9.60126222071183e-06  0.
-3.071893952992042e-06 9.179923215612838e-06  0.
-3.992709538749665e-06 9.529526021747199e-06  0.
-5.5543038824146e-06 1.1200715311612932e-05  0.
-7.27467733216198e-06 1.3224923627313433e-05  0.
0.0 1.549572182601504e-05  0.
-1.2605344924138998e-10 1.54956866027961e-05  0.
-5.418702359144646e-10 1.549549730460392e-05  0.
-1.9864979470138998e-09 1.5494770959863886e-05  0.
-6.438681500524395e-09 1.5492334308526825e-05  0.
-1.8491531145582104e-08 1.548514179214867e-05  0.
-4.718625897146806e-08 1.546644240620966e-05  0.
-1.0745765165949002e-07 1.5423513848505254e-05  0.
-2.195976497316614e-07 1.5336150978827727e-05  0.
-4.051933876042706e-07 1.5177824041736535e-05  0.
-6.796077069549231e-07 1.4921001780409799e-05  0.
-1.043671840457699e-06 1.4545988459394705e-05  0.
-1.4791976739816452e-06 1.40497366863046e-05  0.
-1.9524434331737345e-06 1.34495377604593e-05  0.
-2.4259739912915063e-06 1.2780786612978326e-05  0.
-2.8828204935727364e-06 1.2100622607408483e-05  0.
-3.374104213526558e-06 1.1540564284556782e-05  0.
-4.105664980863361e-06 1.145754660499717e-05  0.
-5.396691508655404e-06 1.2466547222307783e-05  0.
-7.144892457662344e-06 1.4504325583189375e-05  0.
-8.765527642992476e-06 1.6050381477887162e-05  0.
0.0 1.812167497093867e-05  0.
-2.1414680024224775e-10 1.812162142110682e-05  0.
-9.294763173369345e-10 1.8121331366836576e-05  0.
-3.432102864835423e-09 1.8120210510284845e-05  0.
-1.1151437307345151e-08 1.8116442110341857e-05  0.
-3.19038490142548e-08 1.8105373053405106e-05  0.
-8.050178456029448e-08 1.807699517399276e-05  0.
-1.7985452962128387e-07 1.801342741395413e-05  0.
-3.578385941167432e-07 1.7888608202372192e-05  0.
-6.384500668122598e-07 1.7672760481620828e-05  0.
-1.0297596735827985e-06 1.7342084999654814e-05  0.
-1.5155173830840091e-06 1.688963438225954e-05  0.
-2.0571462336904357e-06 1.6330140633575807e-05  0.
-2.608717570006535e-06 1.569442553115431e-05  0.
-3.1405891148783217e-06 1.5020696920911646e-05  0.
-3.6743511174022127e-06 1.4377816820200533e-05  0.
-4.346536457069398e-06 1.3975519899852311e-05  0.
-5.4452682050648225e-06 1.431516453444794e-05  0.
-7.129023977153972e-06 1.5812430560380782e-05  0.
-8.883547379543614e-06 1.7551168469292246e-05  0.
-1.0367137133193694e-05 1.863119148917549e-05  0.
0.0 2.037276240496379e-05  0.
-3.4245664202277945e-10 2.03726866293806e-05  0.
-1.4989265307691708e-09 2.0372273388538178e-05  0.
-5.5683174131693135e-09 2.0370667038057994e-05  0.
-1.8117779583677404e-08 2.036526002144257e-05  0.
-5.1579225391623635e-08 2.0349472533055678e-05  0.
-1.285022684518872e-07 2.0309623641582364e-05  0.
-2.8105463549344627e-07 2.022276306490092e-05  0.
-5.429386707303926e-07 2.0058902212767518e-05  0.
-9.341069851592356e-07 1.9789973478971617e-05  0.
-1.446058815062577e-06 1.9402782322915032e-05  0.
-2.0401730282336515e-06 1.8906881331826822e-05  0.
-2.664342397530902e-06 1.832820784590074e-05  0.
-3.2808463450397524e-06 1.7692798623554308e-05  0.
-3.897593127941636e-06 1.702751029473945e-05  0.
-4.600580733669122e-06 1.6435617792571502e-05  0.
-5.610395375836774e-06 1.6267716495286284e-05  0.
-7.171327532744804e-06 1.7095430596852945e-05  0.
-9.079664543753275e-06 1.879670255941702e-05  0.
-1.0670064933301135e-05 2.0047475107823925e-05  0.
-1.2028167968263151e-05 2.1298627369952428e-05  0.
0.0 2.2702902461652148e-05  0.
-5.167132814772173e-10 2.2702802715695265e-05  0.
-2.2781667204180886e-09 2.2702255542642166e-05  0.
-8.50599480592224e-09 2.270011801527972e-05  0.
-2.769463130745097e-08 2.2692919623037425e-05  0.
-7.840582282162881e-08 2.2672038466951903e-05  0.
-1.9270607073217353e-07 2.262019026713025e-05  0.
-4.120430866217009e-07 2.251041909933989e-05  0.
-7.713998286187932e-07 2.2312160599673445e-05  0.
-1.2777403841226906e-06 2.2004729829442555e-05  0.
-1.898865628542067e-06 2.1589638615825585e-05  0.
-2.578108546655853e-06 2.1088501856939735e-05  0.
-3.2709324969905187e-06 2.052216362123365e-05  0.
-3.9753020495037305e-06 1.9895417171235167e-05  0.
-4.75345363843741e-06 1.9240744979208773e-05  0.
-5.755271093239148e-06 1.8761025145557093e-05  0.
-7.20023454422709e-06 1.8970446015888474e-05  0.
-9.119110706689816e-06 2.0234282134308835e-05  0.
-1.0928351025679623e-05 2.170929566162095e-05  0.
-1.230458304292696e-05 2.2575459283621707e-05  0.
-1.3710569266314327e-05 2.4218887797511214e-05  0.
0.0 2.5218823462234197e-05  0.
-7.360748018300674e-10 2.5218702130955758e-05  0.
-3.265537914018087e-09 2.5218033152503263e-05  0.
-1.2243692738300441e-08 2.521540882157735e-05  0.
-3.9870177925039e-08 2.5206570326573642e-05  0.
-1.1222581048577747e-07 2.5181099165464792e-05  0.
-2.720761530672262e-07 2.511888136625934e-05  0.
-5.684863404042791e-07 2.4991024749297028e-05  0.
-1.0306453483394496e-06 2.477043841792511e-05  0.
-1.6435511306539067e-06 2.444821169949644e-05  0.
-2.3516999542137512e-06 2.4039192584272617e-05  0.
-3.097503462730444e-06 2.3564571996390177e-05  0.
-3.8710771613662305e-06 2.3024542519037796e-05  0.
-4.7224489953033105e-06 2.2407691609737085e-05  0.
-5.7491108865077925e-06 2.180291351605731e-05  0.
-7.115776073909091e-06 2.1574229168256194e-05  0.
-8.915931014444136e-06 2.2253595053807307e-05  0.
-1.0874021719339177e-05 2.3651816805487316e-05  0.
-1.2400163627301494e-05 2.4520641042187146e-05  0.
-1.3738160195115543e-05 2.5180711571826943e-05  0.
-1.512645825534441e-05 2.6611539501883495e-05  0.
0.0 2.7491706224954288e-05  0.
-9.912004494066995e-10 2.7491570423599507e-05  0.
-4.420169750296457e-09 2.749081852493661e-05  0.
-1.66289475399115e-08 2.748785907326828e-05  0.
-5.413860772257291e-08 2.7477895065799325e-05  0.
-1.515292831597964e-07 2.744936287897072e-05  0.
-3.625394826355356e-07 2.738075715614171e-05  0.
-7.406228252979717e-07 2.724385376471115e-05  0.
-1.300882470425426e-06 2.7018411149621433e-05  0.
-2.00034599595005e-06 2.6708525420387092e-05  0.
-2.771404767594606e-06 2.6335700548027467e-05  0.
-3.5821005011004035e-06 2.5906148202010708e-05  0.
-4.471855975232206e-06 2.5396867801756807e-05  0.
-5.529869960902486e-06 2.48140953619853e-05  0.
-6.8373132747311735e-06 2.435164280764059e-05  0.
-8.48410676648011e-06 2.4482997920449058e-05  0.
-1.0380937811156325e-05 2.5464607095429604e-05  0.
-1.2040105912987482e-05 2.6511276930966976e-05  0.
-1.3406253338843688e-05 2.6859050556230173e-05  0.
-1.48263699916162e-05 2.7677424837962237e-05  0.
-1.598187672007243e-05 2.843591173626741e-05  0.
0.0 2.992951145833295e-05  0.
-1.2630960575530047e-09 2.992937329089742e-05  0.
-5.65629163919545e-09 2.992860567815526e-05  0.
-2.133632962300791e-08 2.9925576311014345e-05  0.
-6.943735969449681e-08 2.9915381361770587e-05  0.
-1.9335173894044406e-07 2.988635451669343e-05  0.
-4.5708320874192553e-07 2.9817545912400655e-05  0.
-9.145283125610607e-07 2.9683940540048524e-05  0.
-1.5594664683356042e-06 2.9473620783614333e-05  0.
-2.32005357202669e-06 2.9201113640977048e-05  0.
-3.1365302720572294e-06 2.888608211503849e-05  0.
-4.028697127564672e-06 2.8511913307380602e-05  0.
-5.071038250089095e-06 2.804610561085181e-05  0.
-6.344415592517741e-06 2.7552768932404016e-05  0.
-7.868541434655682e-06 2.7316841854741907e-05  0.
-9.588440365810849e-06 2.774325898046662e-05  0.
-1.1323451404066996e-05 2.8653778253484293e-05  0.
-1.2715185805363833e-05 2.9096490671280354e-05  0.
-1.4119350883387419e-05 2.936013405886735e-05  0.
-1.549998932517305e-05 3.0266233943723888e-05  0.
-1.6729586197665345e-05 3.0582265819433664e-05  0.
0.0 3.230282818593811e-05  0.
-1.5239341736181843e-09 3.230270342561328e-05  0.
-6.846384127055768e-09 3.2302008460321436e-05  0.
-2.5877703753634065e-08 3.22992601739489e-05  0.
-8.417959542972441e-08 3.229001515226755e-05  0.
-2.3338619428648847e-07 3.226381749983658e-05  0.
-5.46159747632994e-07 3.220245189810979e-05  0.
-1.0733906772238635e-06 3.2086074821768685e-05  0.
-1.7837717119982069e-06 3.191012649066894e-05  0.
-2.580912425553559e-06 3.169399155076779e-05  0.
-3.4339515754359554e-06 3.144973905605799e-05  0.
-4.4290779679419395e-06 3.114219999624559e-05  0.
-5.633670666111047e-06 3.07483790199638e-05  0.
-7.057432338929264e-06 3.0397413373838452e-05  0.
-8.672375920287958e-06 3.037842577198444e-05  0.
-1.030782352018205e-05 3.086268872573779e-05  0.
-1.1854425889448906e-05 3.142860201311445e-05  0.
-1.3303192111076834e-05 3.1564154509672646e-05  0.
-1.4696941059725633e-05 3.1977053562910145e-05  0.
-1.6019727575916724e-05 3.2472221058949144e-05  0.
-1.7351228399993678e-05 3.2770815309388334e-05  0.
0.0 3.467552715061593e-05  0.
-1.7420002516031177e-09 3.467543214917469e-05  0.
-7.843979208054763e-09 3.467490198300788e-05  0.
-2.9690228763931537e-08 3.4672802533195555e-05  0.
-9.654396958113407e-08 3.4665743307989914e-05  0.
-2.6678677361232903e-07 3.464581248007974e-05  0.
-6.195316628577724e-07 3.459955062350584e-05  0.
-1.200919719612098e-06 3.4513416159058616e-05  0.
-1.9558969379316625e-06 3.438736217322006e-05  0.
-2.7708732831273906e-06 3.423907613723083e-05  0.
-3.6553974741507864e-06 3.407282866426037e-05  0.
-4.759075710572179e-06 3.384975000114818e-05  0.
-6.098313729118486e-06 3.356352910602107e-05  0.
-7.57112611501445e-06 3.336458977003771e-05  0.
-9.181002793936827e-06 3.3458936407463835e-05  0.
-1.0766347264127291e-05 3.379559511047016e-05  0.
-1.224469250315251e-05 3.4042551771743866e-05  0.
-1.3766768334868105e-05 3.419556442044471e-05  0.
-1.5056515360053758e-05 3.45624244508919e-05  0.
-1.6475184953404104e-05 3.474767684565506e-05  0.
-1.751382607374666e-05 3.5085122476152735e-05  0.
0.0 3.7071903352140566e-05  0.
-1.887247121148754e-09 3.7071851951476886e-05  0.
-8.509613089495541e-09 3.707156477299921e-05  0.
-3.2236561315644997e-08 3.70704265388048e-05  0.
-1.047961856214551e-07 3.7066600123784e-05  0.
-2.8899734413274606e-07 3.7055820179961426e-05  0.
-6.678863331442858e-07 3.703093822656892e-05  0.
-1.2834244588946363e-06 3.698514312650862e-05  0.
-2.063570836242223e-06 3.691952123606663e-05  0.
-2.885250599951313e-06 3.684447592946808e-05  0.
-3.7930840432649565e-06 3.6760295343748265e-05  0.
-4.980956791606294e-06 3.664185618345203e-05  0.
-6.403072442159426e-06 3.649173974092124e-05  0.
-7.858138356739633e-06 3.641046964943003e-05  0.
-9.444446844329726e-06 3.6491538601875834e-05  0.
-1.1075845925294094e-05 3.6642176759885834e-05  0.
-1.2501147887371846e-05 3.6739959854216395e-05  0.
-1.3950887448879632e-05 3.6855816700846835e-05  0.
-1.5301098621850776e-05 3.6991768928249e-05  0.
-1.6618333504124618e-05 3.717614471181913e-05  0.
-1.7770595197255513e-05 3.734696251283312e-05  0.
0.0 3.945000000000012e-05  0.
-1.9382446053397664e-09 3.945000000000012e-05  0.
-8.74353717306981e-09 3.945000000000012e-05  0.
-3.313188922861242e-08 3.945000000000012e-05  0.
-1.0769686093132267e-07 3.945000000000012e-05  0.
-2.9679012614741076e-07 3.945000000000012e-05  0.
-6.847743946153839e-07 3.945000000000012e-05  0.
-1.311962117655418e-06 3.945000000000012e-05  0.
-2.100146406018068e-06 3.945000000000012e-05  0.
-2.92331880802305e-06 3.945000000000012e-05  0.
-3.83995518094231e-06 3.945000000000012e-05  0.
-5.0596507992242595e-06 3.945000000000012e-05  0.
-6.5087078032941835e-06 3.945000000000012e-05  0.
-7.947107035898067e-06 3.945000000000012e-05  0.
-9.526400852834712e-06 3.945000000000012e-05  0.
-1.1193573401234537e-05 3.945000000000012e-05  0.
-1.2573638061072656e-05 3.945000000000012e-05  0.
-1.3986239280811097e-05 3.945000000000012e-05  0.
-1.543950671420821e-05 3.945000000000012e-05  0.
-1.6573316826973184e-05 3.945000000000012e-05  0.
-1.8032824396484684e-05 3.945000000000012e-05  0.
</DataArray>
<DataArray type="Float64" Name="sigma_xx" NumberOfComponents="1" format="ascii" >
134938.18364331828 
134937.79972431058 
134936.15760645777 
134931.37890359104 
134918.8158160763 
134888.24287450901 
134818.97418039507 
134672.28392637917 
134380.90324188187 
133836.23888630344 
132875.25656410778 
131270.41240675314 
128727.0727845568 
124892.93935756813 
119382.58672633536 
111816.87957078076 
101868.26007843594 
89244.52848234618 
73043.86858164033 
45085.47030663278 
26310.374075255706 
380396.50945410604 
380395.6501258975 
380391.9101974305 
380380.77177944814 
380350.81673001 
380276.3786091899 
380104.4841557825 
379734.1262855357 
378986.88146026083 
377570.24687234394 
375038.78601904394 
370762.48417560174 
363915.1623775343 
353496.53207908385 
338397.9684320914 
317512.911851539 
289867.41869656264 
254592.59385407763 
209304.16239132156 
136764.21504162645 
89860.13097450613 
1271214.8003662156 
1271212.0528928223 
1271199.9258921687 
1271163.1756012526 
1271062.8341138698 
1270810.512129899 
1270222.7931851852 
1268949.3507122726 
1266372.4892274877 
1261484.7932716135 
1252764.7524399108 
1238084.1302717351 
1214689.830396026 
1179300.9269549788 
1128344.816454135 
1058321.4552418394 
966185.76738878 
849025.0373922396 
697951.114927808 
456939.5964254483 
301778.6133712451 
3354435.3348147413 
3354427.3229668173 
3354391.5892332094 
3354282.012033218 
3353980.207902098 
3353217.6435382413 
3351439.853790976 
3347598.545168167 
3339873.689615371 
3325358.0220723823 
3299774.305615631 
3257327.122228861 
3190796.163399497 
3091944.648680025 
2952242.537438184 
2763788.776190639 
2519971.13012107 
2213255.6856151945 
1814764.877074878 
1170142.1419664286 
753779.7977233746 
7190545.488781894 
7190523.96047071 
7190427.104440106 
7190127.421679154 
7189297.793261795 
7187200.646860676 
7182332.1634347625 
7171904.80267656 
7151210.095500674 
7112992.905687576 
7047056.9509771485 
6940355.927749648 
6777756.9516695365 
6543478.677392334 
6222952.415089037 
5804525.312272666 
5279349.732670619 
4631393.51952893 
3780453.063542151 
2385244.3330664597 
1483276.984815872 
12155628.029989187 
12155574.572939115 
12155332.386482485 
12154578.40896627 
12152488.005011715 
12147224.884218942 
12135123.517756883 
12109596.746488225 
12059980.925302465 
11970748.262555227 
11821653.02160806 
11589281.557730876 
11250074.367411938 
10784249.920837417 
10179424.12087011 
9432005.480862439 
8541485.419531366 
7477106.853793377 
6051553.539502323 
3687551.872859172 
2165978.4855582435 
15652460.711102407 
15652337.767955609 
15651777.778791085 
15650028.275642358 
15645187.316618012 
15633100.56124155 
15605725.51199925 
15549235.368065488 
15442584.711120939 
15257651.024521241 
14962038.856713176 
14524920.69997421 
13924906.897657532 
13157520.781970762 
12238886.024806805 
11201338.018761205 
10069475.129816514 
8776517.238710407 
6961980.47281974 
3969179.277683791 
2086071.9172647237 
15213727.90326384 
15213464.750677725 
15212261.284179062 
15208496.56863107 
15198131.308272626 
15172569.97507287 
15115838.62456134 
15002073.534246288 
14795195.615016416 
14452970.166621663 
13936624.091587367 
13224658.350436322 
12326411.939059671 
11289079.448762072 
10192428.970145369 
9124744.001817502 
8119660.99761782 
7002515.965498849 
5222207.841257207 
2511109.128425781 
952114.5337226896 
12602666.863020074 
12602139.611044824 
12599721.060250612 
12592158.452077817 
12571491.470391521 
12521329.051329043 
12412759.310801338 
12202552.977102214 
11837504.067117387 
11267840.445301715 
10468600.494540172 
9461757.743707158 
8327849.234837153 
7196698.339580765 
6213454.551567144 
5474967.461345912 
4910968.341703729 
4101882.5675600288 
2439013.9317658297 
558011.9163762582 
-206714.65811837587 
12327327.445359806 
12326335.358330186 
12321774.642090963 
12307539.686070498 
12269009.880409798 
12177264.861779075 
11984548.730752744 
11626726.004014205 
11038808.465162102 
10184403.320520395 
9089700.333838087 
7863047.659990557 
6681303.446915665 
5738023.873464102 
5161803.62077737 
4911161.794234864 
4625018.057122447 
3581809.6091104397 
1507710.5709108503 
-35924.97195447911 
-325908.5502001573 
14018224.524865286 
14016469.595361684 
14008390.636378389 
13983251.624896623 
13915984.567708325 
13759337.493146874 
13441566.187246427 
12879914.643980974 
12016146.394099498 
10865339.400090462 
9550406.80665784 
8289722.701387979 
7323508.55030498 
6804032.781004277 
6686726.778309412 
6634404.648463321 
5954867.543362102 
3967232.7705876585 
1348754.2003552173 
-35434.419705515495 
-182385.375280988 
13686821.352681922 
13683897.329130078 
13670425.625608355 
13628672.742036529 
13518383.47243613 
13267862.552518276 
12779391.0710566 
11963870.41624479 
10803906.879792664 
9413539.000659704 
8040175.013047846 
6976605.494703742 
6410687.041824173 
6292576.769879252 
6290765.384900446 
5795284.134619671 
4115513.6241772473 
1349207.6306835995 
-627405.5563492475 
-653875.876143303 
-255226.07700567902 
12853082.446173487 
12848483.026876483 
12827284.611017661 
12761880.796076607 
12591478.150270712 
12214650.247896008 
11511409.026942665 
10411164.984126868 
8983068.047933461 
7477445.955166053 
6243343.6379734 
5532453.851612043 
5320062.401970457 
5263691.188970119 
4824905.108806893 
3431126.6462178407 
916233.9577306667 
-1463101.4346429296 
-1674869.174287455 
-320471.12568958604 
375734.2903286087 
13596342.137588436 
13589504.28430381 
13557988.084549591 
13461217.3043192 
13212623.466955284 
12678079.42852433 
11726793.564634223 
10343806.324955655 
8731559.676738344 
7278192.783813672 
6341098.628474187 
5967293.6748576565 
5819671.735235371 
5376711.74420614 
4178823.631975987 
2088509.6365870214 
-306179.65138264874 
-1233787.3364506534 
-253274.05922029557 
391688.8935245476 
267881.18377424654 
13433040.049791023 
13423420.652703026 
13379092.953272996 
13243639.726508133 
12900476.63615737 
12183168.408961665 
10969037.707380045 
9342688.252875607 
7671976.790051816 
6427567.862239895 
5822653.815328257 
5577291.12971271 
5112749.297197425 
4042251.372250383 
2288614.6387093994 
198075.25184282765 
-1163608.1503518773 
-792056.0787272705 
46327.06208938878 
-280263.21904825105 
-756114.8308232033 
13210655.52765019 
13197835.655842584 
13138778.699712865 
12959137.96181045 
12509932.998123128 
11596296.971590312 
10126663.381549565 
8326292.9521806 
6732899.909156082 
5787439.939884206 
5393959.121003035 
4968547.326076664 
3958797.162705277 
2409042.185383717 
703384.4215006165 
-750312.4085286305 
-1004667.1209683078 
-459100.1300425215 
-376044.99334224703 
-285938.3301620493 
-79578.43845955661 
13490461.06331423 
13474263.5384449 
13399674.753165456 
13173711.802718136 
12615225.64406269 
11507491.211585458 
9811378.492102368 
7920187.64017807 
6515673.844031946 
5869103.5571913505 
5459513.410333354 
4607644.143618913 
3154704.503758415 
1551860.6691145657 
393548.1324609549 
-308114.39698277577 
-210039.01222352564 
-435.05120404204354 
-274249.64974355174 
-199526.6285930328 
-28948.327067359874 
13304701.505219035 
13285285.761696398 
13195909.325424222 
12926063.887256632 
12265568.77906109 
10983338.262500258 
9105313.629865784 
7197271.46459924 
6039183.627791966 
5617017.439114906 
4961270.914379159 
3610770.9772974774 
2093035.3707852508 
826983.4528963653 
163437.14058057725 
-121805.66520506055 
-333166.59781005303 
-67140.68697809795 
-156479.98618214214 
-369785.78886616114 
-196847.704386829 
13367428.711628195 
13345337.62929808 
13243675.468711017 
12937515.017338267 
12193587.223021323 
10773019.658587743 
8765325.684079263 
6885968.664279954 
5965730.627808627 
5667464.294332052 
4644112.18782477 
2892263.4972395385 
1699064.8998035653 
874285.7352712437 
175946.06017854178 
85589.8562211438 
-181470.65113915928 
50902.12210507924 
32132.115325273655 
298670.2837567334 
1178397.5740050275 
13381189.624852309 
13357323.092549132 
13247511.281268898 
12917327.385547528 
12118658.2498846 
10609349.118896488 
8525329.600507826 
6683730.543990849 
5933197.872580415 
5681298.238509221 
4337492.22053788 
2355845.0089745084 