<?xml version="1.0"?>
<VTKFile type="UnstructuredGrid" version="0.1" byte_order="LittleEndian" compressor="vtkZLibDataCompressor">
<UnstructuredGrid>
<Piece NumberOfPoints="441" NumberOfCells="400">
<PointData>
<DataArray type="Float64" Name="displacement" NumberOfComponents="3" format="ascii" >
0.0 7.125661663012921e-12  0.
-1.3414921164602465e-18 7.125660628612216e-12  0.
-6.0007565550788425e-18 7.125654905212572e-12  0.
-2.3167875658131292e-17 7.125631824638999e-12  0.
-7.976368109143482e-17 7.125549284447335e-12  0.
-2.468522235597711e-16 7.125284598532961e-12  0.
-6.929742222661377e-16 7.124516139370962e-12  0.
-1.7772307280386636e-15 7.1224812790151336e-12  0.
-4.1902826142776545e-15 7.117534068094906e-12  0.
-9.133074327486564e-15 7.106428923015865e-12  0.
-1.8488055586055323e-14 7.083300137065031e-12  0.
-3.490030659149109e-14 7.038418861979873e-12  0.
-6.16502092672674e-14 6.956980107852277e-12  0.
-1.0221338122985976e-13 6.818367971609834e-12  0.
-1.5946166678928792e-13 6.596479300095963e-12  0.
-2.3460203006880036e-13 6.261646998965857e-12  0.
-3.260988855369812e-13 5.784423090439279e-12  0.
-4.290898116846169e-13 5.141010250611861e-12  0.
-5.374523042618303e-13 4.321670854805198e-12  0.
-6.842491343106391e-13 3.380124739264758e-12  0.
-1.5915979669131166e-12 3.414644769556267e-12  0.
0.0 3.026366764274092e-11  0.
-3.4171610025928702e-18 3.026366539007608e-11  0.
-1.651292703600338e-17 3.0263651792705e-11  0.
-6.820012661332009e-17 3.026359230411024e-11  0.
-2.4947249576403105e-16 3.026336391330662e-11  0.
-8.154264488507562e-16 3.0262583062840135e-11  0.
-2.402558677307077e-15 3.02601841958571e-11  0.
-6.430499513322446e-15 3.025350795973633e-11  0.
-1.5743276997373596e-14 3.0236552904041295e-11  0.
-3.5465612271029175e-14 3.019701139835334e-11  0.
-7.38999339354921e-14 3.0111862281593654e-11  0.
-1.4306603248453356e-13 2.994175103634296e-11  0.
-2.583236055768266e-13 2.9625169623703056e-11  0.
-4.3647578338442023e-13 2.9074412091543752e-11  0.
-6.920898886594367e-13 2.8176013991206717e-11  0.
-1.0323395753804786e-12 2.6798389534814596e-11  0.
-1.451595829205364e-12 2.480820205498392e-11  0.
-1.928140975512816e-12 2.2095180353046763e-11  0.
-2.4365126155635506e-12 1.861352600985081e-11  0.
-3.17914853976761e-12 1.4670737911360785e-11  0.
-8.332860339987289e-12 1.5292231727659002e-11  0.
0.0 2.22142019901876e-10  0.
-1.451686336479896e-17 2.2214201103527424e-10  0.
-7.532537666563225e-17 2.2214195454770063e-10  0.
-3.3382818219993154e-16 2.2214168885500186e-10  0.
-1.3023138703908198e-15 2.2214059616640333e-10  0.
-4.512291173104167e-15 2.2213661889194195e-10  0.
-1.4002756348886563e-14 2.221236962846087e-10  0.
-3.923872353835083e-14 2.2208589941543334e-10  0.
-1.0001626150047606e-13 2.2198561582210633e-10  0.
-2.3341486739531913e-13 2.2174258142500613e-10  0.
-5.015873466563904e-13 2.2120135681330546e-10  0.
-9.97425579059774e-13 2.2008799002694986e-10  0.
-1.8432243992718682e-12 2.1796271303233862e-10  0.
-3.17720727476032e-12 2.1418341432824212e-10  0.
-5.124527575749346e-12 2.0790156028968224e-10  0.
-7.755026465929805e-12 1.9811340308860106e-10  0.
-1.1036737601521625e-11 1.8378129232439132e-10  0.
-1.4806056777465374e-11 1.6402620738038344e-10  0.
-1.8865320621291165e-11 1.3846770295258284e-10  0.
-2.4818614324982735e-11 1.0947863195502358e-10  0.
-6.456901879239118e-11 1.1515671493498907e-10  0.
0.0 1.4500373633342301e-09  0.
-5.445074578006648e-17 1.4500373322701686e-09  0.
-3.0173076192326107e-16 1.4500371224322566e-09  0.
-1.4299902789995945e-15 1.450036065537386e-09  0.
-5.9448656424472294e-15 1.45003141942383e-09  0.
-2.1832752030277564e-14 1.4500134334054838e-09  0.
-7.140144186029814e-14 1.4499516359431423e-09  0.
-2.096202829262515e-13 1.4497616499560321e-09  0.
-5.567177488691638e-13 1.4492348437176196e-09  0.
-1.3468347383039232e-12 1.4479077405579861e-09  0.
-2.9864679360396784e-12 1.4448506289564008e-09  0.
-6.102409726280051e-12 1.4383740577497757e-09  0.
-1.154496347011748e-11 1.4256924720565587e-09  0.
-2.0304670835444168e-11 1.4026423218564146e-09  0.
-3.331525618357399e-11 1.3636055949555729e-09  0.
-5.114978262156648e-11 1.3018080286512237e-09  0.
-7.367708630755728e-11 1.210111714688215e-09  0.
-9.98325933294284e-11 1.0823389951188878e-09  0.
-1.2838377586363791e-10 9.157828769461403e-10  0.
-1.7122409593778016e-10 7.27815840666056e-10  0.
-4.3588874232175634e-10 7.720953121715514e-10  0.
0.0 8.232977089671718e-09  0.
-1.82566301576893e-16 8.23297699262217e-09  0.
-1.07470994724236e-15 8.232976301339678e-09  0.
-5.423891380880462e-15 8.232972591264024e-09  0.
-2.396024701537948e-14 8.232955227661698e-09  0.
-9.311857381522906e-14 8.232883910710053e-09  0.
-3.206011472415135e-13 8.232625216195339e-09  0.
-9.855107800978919e-13 8.231790090956725e-09  0.
-2.7258209013199273e-12 8.229371842104448e-09  0.
-6.833286929488764e-12 8.223043227119364e-09  0.
-1.5628104632333133e-11 8.207971857400643e-09  0.
-3.2798965955014044e-11 8.175109370522106e-09  0.
-6.349107525894607e-11 8.10914653877855e-09  0.
-1.1386983637629021e-10 7.986682167910753e-09  0.
-1.8994860696367708e-10 7.775515010714663e-09  0.
-2.9570450053044385e-10 7.436119486365447e-09  0.
-4.308715078172339e-10 6.926121447018324e-09  0.
-5.89478961781193e-10 6.208184138592196e-09  0.
-7.652472135694425e-10 5.266315355838017e-09  0.
-1.0358895968884918e-09 4.213219754882059e-09  0.
-2.568295515769755e-09 4.516079731007642e-09  0.
0.0 4.018206544381845e-08  0.
-5.519735713308798e-16 4.0182065171461385e-08  0.
-3.432259492621387e-15 4.018206313555882e-08  0.
-1.8349664245647593e-14 4.0182051561097284e-08  0.
-8.578328466684171e-14 4.0181994169933365e-08  0.
-3.5170637785437093e-13 4.018174505062649e-08  0.
-1.2716532065621672e-12 4.018079400916239e-08  0.
-4.084394100337415e-12 4.0177578876087814e-08  0.
-1.1743128889426253e-11 4.0167879961993414e-08  0.
-3.045101115264573e-11 4.014157090898232e-08  0.
-7.170878574663268e-11 4.007693738940042e-08  0.
-1.5431508096593622e-10 3.993218854271624e-08  0.
-3.0514498912663163e-10 3.9634951530586346e-08  0.
-5.571737696982508e-10 3.9072402064048366e-08  0.
-9.434517752388046e-10 3.8086667155725206e-08  0.
-1.4870462789050715e-09 3.6481097157730335e-08  0.
-2.189007535682759e-09 3.404193974961211e-08  0.
-3.0207478167006906e-09 3.057862801359734e-08  0.
-3.958126637158686e-09 2.6016082840242373e-08  0.
-5.445061467397425e-09 2.099757088262376e-08  0.
-1.3069102726250895e-08 2.279750069297243e-08  0.
0.0 1.6627487901520084e-07  0.
-1.5159220108162163e-15 1.6627487832333323e-07  0.
-9.902772727445053e-15 1.6627487292260407e-07  0.
-5.577745366354272e-14 1.6627484058634606e-07  0.
-2.746411885957249e-13 1.662746716287027e-07  0.
-1.1832642099268176e-12 1.6627390005199854e-07  0.
-4.477701766706089e-12 1.6627081239252772e-07  0.
-1.4977686490143654e-11 1.6625992440502534e-07  0.
-4.462042983686438e-11 1.6622584110255317e-07  0.
-1.1929560449390863e-10 1.6613039620171404e-07  0.
-2.8833334416699313e-10 1.658894807287318e-07  0.
-6.341772760275586e-10 1.6533756228027078e-07  0.
-1.2769669384160856e-09 1.6418274285340777e-07  0.
-2.3664625479603104e-09 1.6196348015422072e-07  0.
-4.05540620175777e-09 1.5802677459231353e-07  0.
-6.45356442341526e-09 1.5155221469450467e-07  0.
-9.573314292484047e-09 1.4164175344839237e-07  0.
-1.3298920181679658e-08 1.274947022498466e-07  0.
-1.757837599420898e-08 1.0885976774730793e-07  0.
-2.4603264902834072e-08 8.893685083751978e-08  0.
-5.672913726644409e-08 9.81268367923761e-08  0.
0.0 5.738169991478461e-07  0.
-3.805774255601518e-15 5.738169975477917e-07  0.
-2.5981369218043072e-14 5.73816984564009e-07  0.
-1.5335030802492472e-13 5.738169031517028e-07  0.
-7.91385838111303e-13 5.738164572798684e-07  0.
-3.5675903397434107e-12 5.738143254286238e-07  0.
-1.4075597588973805e-11 5.738054213746969e-07  0.
-4.884553252782396e-11 5.737728100416434e-07  0.
-1.5015241305983477e-10 5.736673884521984e-07  0.
-4.1207664384397186e-10 5.733642274717664e-07  0.
-1.017367098195073e-09 5.725825956389195e-07  0.
-2.2758869760048887e-09 5.707621160421833e-07  0.
-4.6430189808500625e-09 5.669057812836184e-07  0.
-8.689238885331789e-09 5.594298840210075e-07  0.
-1.4995809873355263e-08 5.460927212513096e-07  0.
-2.3980047961900017e-08 5.240854411588638e-07  0.
-3.5692359986613864e-08 4.903526421805649e-07  0.
-4.974215345321251e-08 4.4223480598938744e-07  0.
-6.623994345656477e-08 3.7937267473755807e-07  0.
-9.440772959015045e-08 3.154712382733618e-07  0.
-2.070565823175724e-07 3.5523038541333276e-07  0.
0.0 1.6191948595310051e-06  0.
-8.774122070094183e-15 1.619194856151489e-06  0.
-6.229137346841319e-14 1.619194827765883e-06  0.
-3.8331036000263234e-13 1.619194642336315e-06  0.
-2.0631868459035056e-12 1.6191935833142719e-06  0.
-9.689113745664825e-12 1.6191883068900057e-06  0.
-3.969757803193263e-11 1.6191654053255193e-06  0.
-1.4235458081817718e-10 1.6190786604073053e-06  0.
-4.495479466315413e-10 1.6187904608005577e-06  0.
-1.2599299741629668e-09 1.617944358071086e-06  0.
-3.1591152080022328e-09 1.6157313467437352e-06  0.
-7.141743306138886e-09 1.6105329177499987e-06  0.
-1.4661069680818739e-08 1.5994825086463795e-06  0.
-2.7509893319899924e-08 1.5780779891384144e-06  0.
-4.746478795512831e-08 1.5400570855691949e-06  0.
-7.572381069974838e-08 1.47775950736688e-06  0.
-1.1232869642042235e-07 1.3831240643221118e-06  0.
-1.561891090651502e-07 1.2496962121798995e-06  0.
-2.0909565918124508e-07 1.079493735714126e-06  0.
-3.0350192268706333e-07 9.222111470344832e-07  0.
-6.251125315176194e-07 1.065439996396546e-06  0.
0.0 3.6563878203090206e-06  0.
-1.862814383629135e-14 3.6563878137893043e-06  0.
-1.3690314731329258e-13 3.6563877573292068e-06  0.
-8.740609079846364e-13 3.6563873749155545e-06  0.
-4.883970313846093e-12 3.6563851082653407e-06  0.
-2.3789169355527883e-11 3.6563733937584432e-06  0.
-1.0081336621179744e-10 3.6563207779976607e-06  0.
-3.721340020565313e-10 3.6561155023708977e-06  0.
-1.2020695478350452e-09 3.655417742660468e-06  0.
-3.4226853205773573e-09 3.6533381480290457e-06  0.
-8.662024381536078e-09 3.6478593069258136e-06  0.
-1.9645883779287386e-08 3.6349922420690518e-06  0.
-4.0252664117767486e-08 3.607830441853471e-06  0.
-7.50504974954571e-08 3.5558948715525063e-06  0.
-1.2822621683188756e-07 3.4652845510484965e-06  0.
-2.0207998130707872e-07 3.3200530560379697e-06  0.
-2.9589142493712916e-07 3.1049560266819245e-06  0.
-4.0723399208034055e-07 2.8109275391425392e-06  0.
-5.463340909110366e-07 2.4562041410582085e-06  0.
-8.062220967604888e-07 2.1898194415359765e-06  0.
-1.5342565219599613e-06 2.609546048602872e-06  0.
0.0 6.50923737089496e-06  0.
-3.650396963292029e-14 6.509237359408871e-06  0.
-2.765413588459853e-13 6.509237257225627e-06  0.
-1.8236179608864347e-12 6.509236542771843e-06  0.
-1.0530846362317203e-11 6.509232167437783e-06  0.
-5.297670388397356e-11 6.5092088122334885e-06  0.
-2.3130740325820663e-10 6.5091006936010825e-06  0.
-8.756836661629441e-10 6.508667853304167e-06  0.
-2.881936507349633e-09 6.5071685618470075e-06  0.
-8.295929749442722e-09 6.502655344426418e-06  0.
-2.10621035171904e-08 6.490759673120242e-06  0.
-4.757795719021555e-08 6.4630673451719075e-06  0.
-9.645347684383028e-08 6.405644141254772e-06  0.
-1.7695601053390027e-07 6.298674679857322e-06  0.
-2.9610396435420085e-07 6.118268834563696e-06  0.
-4.5558778073155447e-07 5.840714752604452e-06  0.
-6.505692450821228e-07 5.449185925797034e-06  0.
-8.774680029834465e-07 4.947393422403972e-06  0.
-1.1748556611849286e-06 4.414839997546744e-06  0.
-1.7516820866823788e-06 4.2093057031224705e-06  0.
-3.0217496057447546e-06 5.178953402925624e-06  0.
0.0 9.26745499100054e-06  0.
-6.629390479148076e-14 9.26745497243977e-06  0.
-5.156823649549536e-13 9.26745480338561e-06  0.
-3.4978361364462068e-12 9.267453588184427e-06  0.
-2.078822665463256e-11 9.267445931095042e-06  0.
-1.0757572033777463e-10 9.267403886557919e-06  0.
-4.821484751763665e-10 9.267204029620535e-06  0.
-1.86569821683791e-09 9.26638580972264e-06  0.
-6.234169524248407e-09 9.263507465851907e-06  0.
-1.806565048825372e-08 9.254792705611987e-06  0.
-4.575534493055756e-08 9.231949401082086e-06  0.
-1.0223010384989003e-07 9.179667789773855e-06  0.
-2.0338017101772834e-07 9.074253064638604e-06  0.
-3.636507817488498e-07 8.885380922516112e-06  0.
-5.896796299722848e-07 8.58217710537278e-06  0.
-8.754886757255495e-07 8.143149692034577e-06  0.
-1.2051359737761059e-06 7.569607457064254e-06  0.
-1.5786638352479393e-06 6.918080260224285e-06  0.
-2.1021412440944233e-06 6.4195646315629995e-06  0.
-3.1193537815768355e-06 6.726234349228738e-06  0.
-4.798661510380165e-06 8.421419089543154e-06  0.
0.0 1.1398827199241118e-05  0.
-1.122069353463303e-13 1.1398827171530872e-05  0.
-8.930969994751704e-13 1.1398826913951917e-05  0.
-6.20780146066513e-12 1.1398825017624021e-05  0.
-3.782757690742857e-11 1.139881277062051e-05  0.
-2.0063146592323905e-10 1.1398743855190804e-05  0.
-9.199738834627311e-10 1.1398408647141775e-05  0.
-3.627854248695701e-09 1.1397009465506224e-05  0.
-1.2273339080772707e-08 1.139202426624162e-05  0.
-3.568464948010125e-08 1.13768901954858e-05  0.
-8.974226619625647e-08 1.1337624177439915e-05  0.
-1.9710227836921985e-07 1.1249894086320334e-05  0.
-3.8200318702404856e-07 1.1079513535891959e-05  0.
-6.601669821641543e-07 1.0789273136685749e-05  0.
-1.0286009032674828e-06 1.0351593969894975e-05  0.
-1.4615513663148441e-06 9.764466801130383e-06  0.
-1.9285458120291765e-06 9.07285507195903e-06  0.
-2.453749076158027e-06 8.437525121096538e-06  0.
-3.253351614835157e-06 8.329473657047865e-06  0.
-4.684170680290297e-06 9.553407432430294e-06  0.
-6.42553077288687e-06 1.1679700173470097e-05  0.
0.0 1.3621091633737731e-05  0.
-1.7766107283531858e-13 1.3621091595539458e-05  0.
-1.4423104811695082e-12 1.362109123419019e-05  0.
-1.0238753095105093e-11 1.3621088518666847e-05  0.
-6.37503372891853e-11 1.362107060518844e-05  0.
-3.4540396269567923e-10 1.3620967649838582e-05  0.
-1.6154860751054016e-09 1.362045679977863e-05  0.
-6.475551121403927e-09 1.3618288469884221e-05  0.
-2.213203851985469e-08 1.3610480147139807e-05  0.
-6.441469214615236e-08 1.3586760314427679e-05  0.
-1.6031425098193165e-07 1.3526038492313285e-05  0.
-3.4441819834911795e-07 1.3394366010866822e-05  0.
-6.464973250763258e-07 1.3150077134756167e-05  0.
-1.0734545959606653e-06 1.2758112351428275e-05  0.
-1.5988990455911639e-06 1.2208675629299203e-05  0.
-2.1728794032596325e-06 1.1531784289353517e-05  0.
-2.766509623327376e-06 1.0830722655942089e-05  0.
-3.48329474142998e-06 1.0399740175929078e-05  0.
-4.632532944081408e-06 1.0908502177379886e-05  0.
-6.314267895113664e-06 1.2786846099101002e-05  0.
-7.916893629663684e-06 1.4576611259680944e-05  0.
0.0 1.6235068464419843e-05  0.
-2.634332866380841e-13 1.6235068416176847e-05  0.
-2.174794540979067e-12 1.623506795291172e-05  0.
-1.57167806796825e-11 1.6235064409904696e-05  0.
-9.966688483592611e-11 1.6235040610592454e-05  0.
-5.498876345039424e-10 1.6234901329969696e-05  0.
-2.6157237782269003e-09 1.6234198328959657e-05  0.
-1.063206165535327e-08 1.6231171160783335e-05  0.
-3.664383842405423e-08 1.6220172172321824e-05  0.
-1.0659834414703717e-07 1.6186778725043217e-05  0.
-2.620069450608248e-07 1.6102578021426515e-05  0.
-5.487067647923508e-07 1.5926095095543337e-05  0.
-9.933625669019224e-07 1.5615546025438313e-05  0.
-1.5804313369786372e-06 1.5149422413714808e-05  0.
-2.251939971463365e-06 1.4543451956334212e-05  0.
-2.9531648583568086e-06 1.3859130248233401e-05  0.
-3.7085504290581107e-06 1.3258599550882207e-05  0.
-4.747976499052137e-06 1.3176550720429257e-05  0.
-6.337366875333429e-06 1.423649233506219e-05  0.
-8.112536359312302e-06 1.5941317352388663e-05  0.
-9.551786939823552e-06 1.6963146021057875e-05  0.
0.0 1.853573346764342e-05  0.
-3.664992815266528e-13 1.8535733411991123e-05  0.
-3.0680407419362253e-12 1.8535732870916502e-05  0.
-2.250297004736582e-11 1.853572867251451e-05  0.
-1.448864597270328e-10 1.853570004565249e-05  0.
-8.115236766165068e-10 1.853552998511817e-05  0.
-3.915027350920087e-09 1.853465936954438e-05  0.
-1.6098745068337648e-08 1.8530865383577257e-05  0.
-5.5859494099244e-08 1.8516979555202214e-05  0.
-1.6225890993486916e-07 1.847487757563955e-05  0.
-3.9350458639513577e-07 1.837036154061783e-05  0.
-8.018159470077045e-07 1.815905460215681e-05  0.
-1.3965696975027852e-06 1.780828288514341e-05  0.
-2.130585589676084e-06 1.7317670864408466e-05  0.
-2.92759181465823e-06 1.672162949763329e-05  0.
-3.7712397895858036e-06 1.6100946817023396e-05  0.
-4.80180483143333e-06 1.5681500848047644e-05  0.
-6.279208107225994e-06 1.6008151167968266e-05  0.
-8.211696540738016e-06 1.7321637591063844e-05  0.
-9.875853087949797e-06 1.839431776064052e-05  0.
-1.1137223757201329e-05 1.914524287614096e-05  0.
0.0 2.0873491948435322e-05  0.
-4.793783052029969e-13 2.0873491890361953e-05  0.
-4.0582214466573285e-12 2.087349132010207e-05  0.
-3.012312201610817e-11 2.087348684356906e-05  0.
-1.9634191433203407e-10 2.0873455951502047e-05  0.
-1.1132163157966312e-09 2.0873270212792715e-05  0.
-5.432075716793964e-09 2.0872308419507323e-05  0.
-2.254752004867094e-08 2.0868076560033365e-05  0.
-7.865315253351103e-08 2.0852498446899355e-05  0.
-2.2804871557786203e-07 2.080534110367865e-05  0.
-5.459213436601786e-07 2.068998090823126e-05  0.
-1.0826001482528293e-06 2.0464863690890734e-05  0.
-1.814224789320108e-06 2.0113106146192247e-05  0.
-2.6654497884887034e-06 1.9654978170758926e-05  0.
-3.5841948835985424e-06 1.9125982966470465e-05  0.
-4.626813373167265e-06 1.8618398526157977e-05  0.
-6.022273248353665e-06 1.8446277117517768e-05  0.
-7.84179752463703e-06 1.908831772512728e-05  0.
-9.677489318626793e-06 2.0215211500836622e-05  0.
-1.1030381844384578e-05 2.0765612608120666e-05  0.
-1.2298865110943665e-05 2.1774916471928016e-05  0.
0.0 2.3343565977143058e-05  0.
-5.899669719973451e-13 2.334356592374123e-05  0.
-5.03762196161421e-12 2.3343565395272433e-05  0.
-3.7737470464367154e-11 2.3343561209141885e-05  0.
-2.483012139612227e-10 2.334353204977001e-05  0.
-1.421082600804948e-09 2.3343355076299767e-05  0.
-6.995596800392518e-09 2.3342430456352625e-05  0.
-2.9248527365262028e-08 2.333833126283699e-05  0.
-1.0244263155080711e-07 2.3323172249945746e-05  0.
-2.964942803084588e-07 2.327734476596e-05  0.
-7.017558866416275e-07 2.3166615581120408e-05  0.
-1.3580600589914638e-06 2.2957218764554378e-05  0.
-2.1969213499888868e-06 2.2648330133770656e-05  0.
-3.1316768576718464e-06 2.2272550077506514e-05  0.
-4.190986453239046e-06 2.1852366708050424e-05  0.
-5.481517675227011e-06 2.148753387123041e-05  0.
-7.139650645553385e-06 2.155565972851595e-05  0.
-8.975226732167681e-06 2.227797173422496e-05  0.
-1.0382223042143855e-05 2.2930685643978536e-05  0.
-1.1664479660836665e-05 2.3222040104053388e-05  0.
-1.2970220306704218e-05 2.4116558074165447e-05  0.
0.0 2.5654038988943495e-05  0.
-6.838431422383779e-13 2.565403894773325e-05  0.
-5.8749177426059594e-12 2.5654038537716345e-05  0.
-4.429631809352384e-11 2.5654035269470123e-05  0.
-2.9340759596533757e-10 2.565401235567035e-05  0.
-1.6904347227408773e-09 2.565387237879529e-05  0.
-8.373618738464082e-09 2.5653136502670217e-05  0.
-3.5190503745750165e-08 2.5649856900785132e-05  0.
-1.2360526168959225e-07 2.563769075708664e-05  0.
-3.572204498324714e-07 2.5600953291777486e-05  0.
-8.380646401809732e-07 2.5513023066678204e-05  0.
-1.5906296993301414e-06 2.5350825774358923e-05  0.
-2.500701053683712e-06 2.5122856370452895e-05  0.
-3.489593144279561e-06 2.4861606272584814e-05  0.
-4.6992531047431174e-06 2.4576847354289762e-05  0.
-6.215070195973477e-06 2.435785172965873e-05  0.
-7.888142437257692e-06 2.4530392206404795e-05  0.
-9.499503050858712e-06 2.5089041201859297e-05  0.
-1.077409233278515e-05 2.5357758279809895e-05  0.
-1.221654013457747e-05 2.5623273452679952e-05  0.
-1.3341177908874596e-05 2.6041036822728843e-05  0.
0.0 2.808023721413993e-05  0.
-7.470256831206437e-13 2.808023719166802e-05  0.
-6.441091420705674e-12 2.80802369673464e-05  0.
-4.875351843531641e-11 2.8080235172394446e-05  0.
-3.242187208875276e-10 2.8080222537809874e-05  0.
-1.875374879396383e-09 2.8080145046419163e-05  0.
-9.324418324856968e-09 2.8079736111966554e-05  0.
-3.9306982917753664e-08 2.8077907695771108e-05  0.
-1.382981706293573e-07 2.8071111594546635e-05  0.
-3.993075693022961e-07 2.8050602914279558e-05  0.
-9.316162652196199e-07 2.8001799988649233e-05  0.
-1.746244728295598e-06 2.7913188360849347e-05  0.
-2.694759300804003e-06 2.779264422226337e-05  0.
-3.714080915292196e-06 2.766037385865527e-05  0.
-5.041617943496996e-06 2.751898880414347e-05  0.
-6.694317899548247e-06 2.7422527915808835e-05  0.
-8.246135957489455e-06 2.7548272093203784e-05  0.
-9.70545723133119e-06 2.7823017690256423e-05  0.
-1.1159962696385704e-05 2.7910258566903178e-05  0.
-1.2474590334475015e-05 2.8127480186796376e-05  0.
-1.3721452809129101e-05 2.8306499188740718e-05  0.
0.0 3.0449999999999903e-05  0.
-7.693211568614658e-13 3.0449999999999903e-05  0.
-6.64135383987938e-12 3.0449999999999903e-05  0.
-5.033406872557564e-11 3.0449999999999903e-05  0.
-3.351730000175672e-10 3.0449999999999903e-05  0.
-1.941298237059575e-09 3.0449999999999903e-05  0.
-9.66417424489081e-09 3.0449999999999903e-05  0.
-4.078096030126697e-08 3.0449999999999903e-05  0.
-1.4356495480159389e-07 3.0449999999999903e-05  0.
-4.143801347224534e-07 3.0449999999999903e-05  0.
-9.649502540205556e-07 3.0449999999999903e-05  0.
-1.8009544726600212e-06 3.0449999999999903e-05  0.
-2.761275379361114e-06 3.0449999999999903e-05  0.
-3.79037394174008e-06 3.0449999999999903e-05  0.
-5.162306566444874e-06 3.0449999999999903e-05  0.
-6.856753953131232e-06 3.0449999999999903e-05  0.
-8.345548389601491e-06 3.0449999999999903e-05  0.
-9.783506848849244e-06 3.0449999999999903e-05  0.
-1.1322126897835506e-05 3.0449999999999903e-05  0.
-1.2459609885262507e-05 3.0449999999999903e-05  0.
-1.3949496099684287e-05 3.0449999999999903e-05  0.
</DataArray>
<DataArray type="Float64" Name="sigma_xx" NumberOfComponents="1" format="ascii" >
129.57280821623834 
129.57276214198282 
129.5725209793374 
129.57163149085454 
129.56872268432556 
129.56012269693667 
129.5369509990429 
129.47966060439236 
129.348892363712 
129.07186596189385 
128.52470160362722 
127.51306203151452 
125.75618116850147 
122.88163848683804 
118.4391447472954 
111.93954824184611 
102.91910857995742 
91.00326303634884 
75.6438583326968 
50.17965419296108 
33.35344663790705 
602.0458377054003 
602.0457071154171 
602.0449973109796 
602.0422302965843 
602.03267888137 
602.0030261455477 
601.9195506801187 
601.7049234585679 
601.1976354525215 
600.0891777380166 
597.838917076876 
593.5764140652109 
586.0142703040249 
573.4080905234194 
553.6064503736114 
524.2266896077206 
482.9632985481335 
427.9266639761746 
356.6924294762241 
244.54391577832794 
172.46738349685478 
3975.370406761324 
3975.369865377719 
3975.3667786690526 
3975.354025903542 
3975.3075696757887 
3975.156256336153 
3974.711938958818 
3973.5266520457544 
3970.6341532996776 
3964.136907114167 
3950.6301322850254 
3924.5196746445768 
3877.3867403057984 
3797.650259174111 
3670.833908311909 
3480.700653760159 
3211.320483373358 
2849.3213994645876 
2376.943259629893 
1629.9340446251913 
1149.6991411119589 
22430.47032139955 
22430.468331319225 
22430.456443706105 
22430.40457384215 
22430.205781187586 
22429.52822421595 
22427.457694224042 
22421.739861366852 
22407.365710866427 
22374.25091926037 
22303.92315321072 
22165.510862101604 
21911.898474538666 
21477.517866963495 
20779.596900169498 
19724.457915665233 
18219.237124125757 
16183.926911028651 
13503.60631078295 
9212.535798228113 
6442.717020960216 
108452.66266849004 
108452.65609911167 
108452.61510663004 
108452.42683707453 
108451.66982715312 
108448.97669950999 
108440.43332832727 
108416.07401131933 
108353.16455582995 
108204.96055376212 
107884.40850033329 
107244.1911204452 
106057.40033039209 
104006.2129492147 
100687.5907576948 
95643.79214230808 
88418.70530585934 
78608.71604598305 
65572.9166502583 
44434.87129704436 
30735.28411809966 
442564.6936698445 
442564.67404782376 
442564.54656126915 
442563.9326459173 
442561.3516073844 
442551.7978121295 
442520.44272571884 
442428.47462707106 
442185.4709223903 
441602.6458900017 
440324.95029642497 
437748.4057948659 
432941.7982004062 
424603.75475566176 
411092.1410260119 
390553.73124696186 
361149.82471732434 
321205.1547327065 
267680.8500570726 
179747.4217827443 
122532.54077391746 
1494687.365235325 
1494687.3118646005 
1494686.9520392918 
1494685.142643392 
1494677.2177768736 
1494646.8015750083 
1494543.9098479531 
1494234.8014741088 
1493403.3621373128 
1491384.9364943272 
1486929.0561470094 
1477921.6029284666 
1461141.4912111594 
1432164.609531197 
1385528.2991018593 
1315221.2574891043 
1215410.3187053201 
1080574.1236627665 
898628.0479180649 
595850.676395798 
398157.8531125239 
4071700.830393208 
4071700.6975323195 
4071699.7712204703 
4071694.9271900766 
4071672.9079466257 
4071585.585431635 
4071282.255280244 
4070353.1193043836 
4067823.106479667 
4061648.158143334 
4048030.333790538 
4020689.643537419 
3970361.3185469927 
3884852.686495695 
3749897.4681552458 
3550778.4892675932 
3274081.5258984044 
2906132.2411390385 
2407160.084530501 
1567114.0489176884 
1017380.8198277785 
8645878.504472334 
8645878.200726926 
8645876.018227208 
8645864.19769832 
8645808.642987791 
8645581.795179993 
8644775.562731672 
8642268.720860079 
8635398.028567411 
8618660.417069025 
8582119.326286301 
8510053.297517262 
8380700.726911303 
8167835.156063717 
7844330.044698646 
7386623.652756333 
6777110.935920527 
5992544.757652691 
4925741.300513839 
3115853.023843111 
1932726.7605731713 
13726527.741832646 
13726527.102366777 
13726522.382776763 
13726496.013296714 
13726368.352823507 
13725833.44643087 
13723894.967169456 
13717801.65244869 
13701085.051645767 
13660738.450735442 
13574368.672497846 
13409085.854069028 
13124227.431092378 
12678963.292332873 
12043057.566351179 
11205961.620884487 
10173525.876605049 
8921299.932950553 
7213736.638591797 
4333655.874446876 
2472624.8589844825 
15755077.892361453 
15755076.647877999 
15755067.242482405 
15755013.229278669 
15754744.80237496 
15753594.25757515 
15749355.2159572 
15735930.330222325 
15699241.540333115 
15612119.959516402 
15430980.850500526 
15098884.045942571 
14558505.771248845 
13774064.035199674 
12753217.454004966 
11554645.271433156 
10255963.897529414 
8824640.93577959 
6837066.532979103 
3658857.365726406 
1702287.649921366 
13724872.198573384 
13724869.947935183 
13724852.57841999 
13724750.385525621 
13724230.638498923 
13721957.809571065 
13713463.993496565 
13686429.01620469 
13613098.17281833 
13442808.363437053 
13102023.439636994 
12511015.922348019 
11619389.46657144 
10447636.296708953 
9110691.898094703 
7789723.053071193 
6622984.859610872 
5454800.01235776 
3664243.8173170313 
1323022.2929848772 
139196.272785744 
12216728.733072186 
12216724.934388524 
12216695.073861334 
12216515.622844834 
12215584.189849019 
12211438.603133615 
12195754.429033197 
12145669.709169613 
12011184.341163602 
11707317.830267634 
11127165.237456104 
10188002.088936562 
8900505.804808222 
7416340.231372843 
6006257.27358014 
4932548.047262197 
4203587.072447052 
3295457.8316882364 
1544742.60093126 
24370.96826395992 
-350909.0446760147 
13574433.348560572 
13574427.351678075 
13574379.45543416 
13574086.285541326 
13572537.5348178 
13565538.153060379 
13538777.891641427 
13453162.55131463 
13225996.904684441 
12728677.040840387 
11830895.660920016 
10494613.989786992 
8869313.841070153 
7293659.3683215445 
6136307.608901697 
5533449.269627306 
5053136.813901288 
3764229.334815378 
1522274.6867220448 
57395.81976672884 
-143195.8152411399 
13794946.941828152 
13794938.069866443 
13794866.243959926 
13794419.686528265 
13792024.923997719 
13781060.024703886 
13738767.500458134 
13603340.859324884 
13248584.691543173 
12498156.676420834 
11227881.663385678 
9519139.397592481 
7726626.98200841 
6340400.875326357 
5617488.327692896 
5253689.1924321875 
4337697.385809137 
2123556.6279853797 
-160048.71878981194 
-784821.174090996 
-594964.4697792267 
13017704.79199082 
13017692.467115302 
13017591.55201455 
13016955.920625988 
13013504.159246977 
12997526.098908687 
12935444.69833288 
12736597.113526415 
12222262.176802782 
11171768.743694179 
9515025.92277291 
7539128.633605555 
5809740.519490807 
4785459.879090919 
4344207.2518526865 
3615865.884984121 
1764858.8886773041 
-846331.9405323345 
-1879938.5043677306 
-802395.3187920119 
-38563.15718352649 
13494311.91536736 
13494295.81666653 
13494162.79052118 
13493316.041422475 
13488670.872780854 
13466977.455332333 
13382191.060290998 
13110641.760463715 
12416404.987001106 
11045310.366882924 
9036706.596543685 
6955546.505166346 
5496814.776434533 
4778649.0569704175 
4187718.681501204 
2699481.0926839947 
305513.6200645517 
-1236567.6594884545 
-754962.770716133 
248900.6650519574 
512349.05809316767 
13417556.388425551 
13417536.594289443 
13417371.87562943 
13416314.869064927 
13410470.679668866 
13382990.70803519 
13275100.704484824 
12929643.233303968 
12055170.781128202 
10378602.128761299 
8091145.073000232 
6066168.607660402 
4986043.831679901 
4319303.238442131 
3150979.544580703 
1200723.6409014298 
-710383.8850600007 
-590277.9720901083 
197158.70433493523 
-31290.898060756124 
-184242.7067038818 
13294101.700359391 
13294078.771082176 
13293887.006959897 
13292649.361341642 
13285768.289819043 
13253255.407449596 
13125194.99329242 
12715262.393419467 
11685367.829951093 
9756304.408727247 
7279094.777914338 
5407765.285829982 
4689086.298394676 
3806019.0003472376 
1910017.4948793955 
256531.84121202095 
-490740.27308135806 
6236.918820634921 
184271.96825465976 
-30870.73425253562 
296466.83482722274 
13460889.423937779 
13460864.386079896 
13460654.361300118 
13459294.205839634 
13451706.859469036 
13415752.697613783 
13273866.242939848 
12819763.82565352 
11684251.98250246 
9588837.59572895 
7006791.559561972 