<?xml version="1.0"?>
<VTKFile type="UnstructuredGrid" version="0.1" byte_order="LittleEndian" compressor="vtkZLibDataCompressor">
<UnstructuredGrid>
<Piece NumberOfPoints="441" NumberOfCells="400">
<PointData>
<DataArray type="Float64" Name="displacement" NumberOfComponents="3" format="ascii" >
0.0 7.685684869159145e-16  0.
1.6110859816968315e-21 7.685671126102647e-16  0.
-1.47816841476537e-22 7.685690295493581e-16  0.
-2.2134663933743177e-21 7.685672652682754e-16  0.
-6.4407969121243134e-21 7.685517839163718e-16  0.
-1.268106490706353e-20 7.685310634193595e-16  0.
-4.847468715462538e-20 7.684861368675899e-16  0.
-1.3211793894202313e-19 7.68312848689784e-16  0.
-3.2800412271682177e-19 7.679051409416203e-16  0.
-7.491822220873013e-19 7.669365937877693e-16  0.
-1.5784113355836253e-18 7.648280825484525e-16  0.
-3.0725699817166572e-18 7.60589976523331e-16  0.
-5.611045261605687e-18 7.526737261255162e-16  0.
-9.529599144960756e-18 7.388549031397894e-16  0.
-1.517233002519307e-17 7.162547322918923e-16  0.
-2.2725485724027097e-17 6.815445004933402e-16  0.
-3.201683719660193e-17 6.3134975463547905e-16  0.
-4.260377151966378e-17 5.628529550825837e-16  0.
-5.3736223993946016e-17 4.746485806932573e-16  0.
-6.839512476345155e-17 3.705890993501187e-16  0.
-1.822979846228169e-16 3.7228094583272456e-16  0.
0.0 5.900353359260356e-15  0.
-3.1181430488518984e-21 5.900356773118472e-15  0.
-1.3343682485178327e-21 5.900354978677441e-15  0.
-4.509662961969183e-21 5.90035077564155e-15  0.
-2.3459460106718942e-20 5.900329785640494e-15  0.
-8.138772751709728e-20 5.900246846789114e-15  0.
-2.604917739265589e-19 5.899958880068186e-15  0.
-7.746315149648073e-19 5.899084655717164e-15  0.
-2.0454309072182377e-18 5.896696476838037e-15  0.
-4.904873320040911e-18 5.890736638974289e-15  0.
-1.076317137737431e-17 5.877223726668667e-15  0.
-2.1771604706394212e-17 5.849023459657867e-15  0.
-4.075433501057818e-17 5.7945768829445544e-15  0.
-7.101487432944647e-17 5.696901056785956e-15  0.
-1.1552079272654227e-16 5.533372960114994e-15  0.
-1.7601864066501144e-16 5.277152161625105e-15  0.
-2.5181928867666764e-16 4.900364723298586e-15  0.
-3.390541657132511e-16 4.379198895868553e-15  0.
-4.31623389280406e-16 3.701087848381081e-15  0.
-5.539299049220717e-16 2.9042939530820655e-15  0.
-1.5990767645041971e-15 2.9728722844692963e-15  0.
0.0 8.03726787207156e-14  0.
-4.556835608059815e-21 8.037267839650301e-14  0.
-5.742611932425051e-21 8.037266451581373e-14  0.
-3.121294163298729e-20 8.037263701482465e-14  0.
-1.6661339404079093e-19 8.037249699733394e-14  0.
-6.819872862086323e-19 8.037183899130952e-14  0.
-2.4464610676110162e-18 8.036933457350201e-14  0.
-7.741761973879657e-18 8.036105631208873e-14  0.
-2.1720843587909872e-17 8.033680107385214e-14  0.
-5.488681941055107e-17 8.027308604386084e-14  0.
-1.2590929281714722e-16 8.012143279781137e-14  0.
-2.6441975122199367e-16 7.979177302626012e-14  0.
-5.113691914007825e-16 7.913283765776766e-14  0.
-9.156303752067863e-16 7.791505965447672e-14  0.
-1.5243484097596375e-15 7.582478865370375e-14  0.
-2.3680122962706427e-15 7.247962376174279e-14  0.
-3.4426107994354158e-15 6.747289766930918e-14  0.
-4.69597104854109e-15 6.044687696381943e-14  0.
-6.040414865821586e-15 5.1201373618022876e-14  0.
-7.825946170487927e-15 4.0269491176794506e-14  0.
-2.2511039004911037e-14 4.1405186554746716e-14  0.
0.0 9.755073993525364e-13  0.
-6.839472281720491e-21 9.755073932377545e-13  0.
-2.3289501217419945e-20 9.75507382277623e-13  0.
-1.8506353376452995e-19 9.755072283292624e-13  0.
-1.0426774675046086e-18 9.755063489153346e-13  0.
-4.877153220722477e-18 9.755019243140968e-13  0.
-1.9379340347822333e-17 9.754832970941843e-13  0.
-6.637168149686388e-17 9.754160240724915e-13  0.
-1.9961343793069106e-16 9.752037690084538e-13  0.
-5.342579956821094e-16 9.74610245760833e-13  0.
-1.287545176056884e-15 9.731208787965957e-13  0.
-2.8184623836661427e-15 9.697348408409307e-13  0.
-5.646998963732742e-15 9.627041019483299e-13  0.
-1.041699810995068e-14 9.492848669115832e-13  0.
-1.7783588538676053e-14 9.256145245518328e-13  0.
-2.8210042511658978e-14 8.868584651176397e-13  0.
-4.17263450588166e-14 8.277403223018857e-13  0.
-5.771780568807899e-14 7.434850682825015e-13  0.
-7.509563179621529e-14 6.312814255095431e-13  0.
-9.852826487680159e-14 4.980052743707031e-13  0.
-2.807773153240823e-13 5.144133770480708e-13  0.
0.0 1.0425435462971236e-11  0.
-1.705196873283113e-20 1.0425435456207523e-11  0.
-1.0909248748023482e-19 1.0425435382368522e-11  0.
-8.684190305088934e-19 1.0425434763038166e-11  0.
-5.539170058624134e-18 1.042543047019108e-11  0.
-2.934497793369901e-17 1.0425405938806694e-11  0.
-1.2933762533953572e-16 1.0425290151377642e-11  0.
-4.85206812744827e-16 1.0424828644839277e-11  0.
-1.5744078933836625e-15 1.0423247254480057e-11  0.
-4.495580530423995e-15 1.0418504665604154e-11  0.
-1.1435772978646312e-14 1.040588447856699e-11  0.
-2.6208787211082767e-14 1.0375731970243653e-11  0.
-5.4569860246696294e-14 1.0310449501563196e-11  0.
-1.0399048462879094e-13 1.0181372393503462e-11  0.
-1.8240337088393985e-13 9.946849460044358e-12  0.
-2.959528371259883e-13 9.553243424200571e-12  0.
-4.459105035206856e-13 8.940447979443446e-12  0.
-6.260986108627689e-13 8.052476597237442e-12  0.
-8.246663621099202e-13 6.854882886666717e-12  0.
-1.0972166385547384e-12 5.42675366570809e-12  0.
-3.090425389277914e-12 5.636260834662605e-12  0.
0.0 9.719980786588068e-11  0.
-4.637565552922281e-20 9.719980783994691e-11  0.
-4.070456154704938e-19 9.719980759381267e-11  0.
-3.4626583829974443e-18 9.719980532813684e-11  0.
-2.470162489610336e-17 9.719978787153988e-11  0.
-1.4683688123459658e-16 9.719967574464396e-11  0.
-7.249190026507787e-16 9.719907846603015e-11  0.
-2.9961559153153027e-15 9.719643344237792e-11  0.
-1.0579242377142186e-14 9.71864990342728e-11  0.
-3.240631930853942e-14 9.715432601336571e-11  0.
-8.751737183705906e-14 9.706295383130352e-11  0.
-2.1080887358774094e-13 9.68324245056889e-11  0.
-4.577887536971688e-13 9.630988763643435e-11  0.
-9.034044178154489e-13 9.523633111939813e-11  0.
-1.631639126302047e-12 9.322220315229626e-11  0.
-2.71176724097879e-12 8.975076371802793e-11  0.
-4.1671499895923825e-12 8.422668210328721e-11  0.
-5.9443185564640774e-12 7.607943400863193e-11  0.
-7.933519679325851e-12 6.494462642513057e-11  0.
-1.0720133766612473e-11 5.162925771519298e-11  0.
-2.975371815599205e-11 5.397636993459579e-11  0.
0.0 7.821216912576156e-10  0.
-1.2463519207751643e-19 7.821216912163313e-10  0.
-1.2984180561813034e-18 7.821216905056021e-10  0.
-1.1973879687782732e-17 7.821216833603506e-10  0.
-9.399090146074977e-17 7.82121623010812e-10  0.
-6.193556156148538e-16 7.821211933179358e-10  0.
-3.4022492938537407e-15 7.821186407521982e-10  0.
-1.5582886772943383e-14 7.821060216851357e-10  0.
-6.009660135133777e-14 7.820538518056042e-10  0.
-1.9878818166836165e-13 7.818701248882586e-10  0.
-5.722717821949255e-13 7.813103586122079e-10  0.
-1.4553020387015106e-12 7.798116342042803e-10  0.
-3.305331087905845e-12 7.762421203441557e-10  0.
-6.772900701256239e-12 7.685986046522165e-10  0.
-1.261644067133903e-11 7.537583717967634e-10  0.
-2.1510331950070476e-11 7.274464217526562e-10  0.
-3.374255167790177e-11 6.845985455533588e-10  0.
-4.8939482836980376e-11 6.202227267684229e-10  0.
-6.623484311893854e-11 5.310376739211901e-10  0.
-9.105259090469679e-11 4.24309236096975e-10  0.
-2.480372569159562e-10 4.4717984066043926e-10  0.
0.0 5.363607167195113e-09  0.
-3.2511449695709724e-19 5.363607167055458e-09  0.
-3.672303211250339e-18 5.363607165183203e-09  0.
-3.6498312658086163e-17 5.363607145430992e-09  0.
-3.104472462263284e-16 5.363606964797199e-09  0.
-2.236634002900187e-15 5.363605560736005e-09  0.
-1.3520514812153944e-14 5.363596377597675e-09  0.
-6.823281358925233e-14 5.363546227498081e-09  0.
-2.8830066210148456e-13 5.36331753890668e-09  0.
-1.031708276863888e-12 5.362440124177501e-09  0.
-3.1795119179638187e-12 5.3595596710697625e-09  0.
-8.556696751417613e-12 5.351349586619025e-09  0.
-2.038431374367644e-11 5.330738272628679e-09  0.
-4.343715579957694e-11 5.284637517847227e-09  0.
-8.358012448495574e-11 5.1918477431522016e-09  0.
-1.462825537229438e-10 5.022421044814462e-09  0.
-2.343925176225226e-10 4.739864453881228e-09  0.
-3.457457308334987e-10 4.307254406091241e-09  0.
-4.748457439378338e-10 3.6999102679830405e-09  0.
-6.652812858889444e-10 2.9751977049998964e-09  0.
-1.769437744330078e-09 3.167091194186605e-09  0.
0.0 3.088559864628085e-08  0.
-7.767390925610764e-19 3.0885598645951826e-08  0.
-9.39371533103738e-18 3.0885598641651e-08  0.
-9.911569334358946e-17 3.088559859307889e-08  0.
-9.032337925440634e-16 3.0885598118250836e-08  0.
-7.0247231745172e-15 3.088559414106709e-08  0.
-4.6153430678831746e-14 3.088556590055264e-08  0.
-2.542041195202932e-13 3.088539743101227e-08  0.
-1.1706847790566597e-12 3.088455768840924e-08  0.
-4.533328213547207e-12 3.088105078323723e-08  0.
-1.4954279414745227e-11 3.086865372278439e-08  0.
-4.265715920259247e-11 3.083098510451868e-08  0.
-1.0663944172392989e-10 3.073123146673055e-08  0.
-2.365194954448157e-10 3.049797252881932e-08  0.
-4.700832709336272e-10 3.001113050548524e-08  0.
-8.446000028611658e-10 2.9095660850210537e-08  0.
-1.3816613424939205e-09 2.7532720668213733e-08  0.
-2.0720758424779492e-09 2.509578798766711e-08  0.
-2.8882966433695e-09 2.163413156958671e-08  0.
-4.132007341753049e-09 1.7542148399018047e-08  0.
-1.0654060384048022e-08 1.8911847977002273e-08  0.
0.0 1.4670534659903028e-07  0.
-1.7167968665842826e-18 1.4670534659841245e-07  0.
-2.1768237962127075e-17 1.4670534658940205e-07  0.
-2.4239192365451665e-16 1.4670534648226416e-07  0.
-2.3429907554414668e-15 1.4670534537359282e-07  0.
-1.9452675620567617e-14 1.4670533547917439e-07  0.
-1.3730337161540363e-13 1.4670526011312605e-07  0.
-8.163618582797708e-13 1.4670477509729539e-07  0.
-4.064341819320176e-12 1.4670215809780634e-07  0.
-1.694650236711976e-11 1.466903540982581e-07  0.
-5.967822300771663e-11 1.4664559886470354e-07  0.
-1.800295139067074e-10 1.4650112262070436e-07  0.
-4.715900887542875e-10 1.4609841831321952e-07  0.
-1.0867259564203852e-09 1.4511619159128923e-07  0.
-2.2273464138574837e-09 1.4299486304955844e-07  0.
-4.099983113348135e-09 1.3889645711165963e-07  0.
-6.834353960169378e-09 1.3175111887363775e-07  0.
-1.0401452828179071e-08 1.2043620643038026e-07  0.
-1.4707535560398562e-08 1.0423840689549831e-07  0.
-2.151876082207171e-08 8.549692688884523e-08  0.
-5.327567385855471e-08 9.369602517075444e-08  0.
0.0 5.62547799997098e-07  0.
-3.4825496498367175e-18 5.625477999959638e-07  0.
-4.618790013279158e-17 5.625477999787523e-07  0.
-5.382108536427414e-16 5.625477997653311e-07  0.
-5.470562467401294e-15 5.62547797447357e-07  0.
-4.802303690291907e-14 5.625477756144948e-07  0.
-3.6038005287305303e-13 5.625475991068549e-07  0.
-2.288918060713884e-12 5.625463870056088e-07  0.
-1.2203687347738588e-11 5.625393839367156e-07  0.
-5.4404709519671934e-11 5.625055527634856e-07  0.
-2.0346421019074371e-10 5.623689182359227e-07  0.
-6.455489511111813e-10 5.619036109468776e-07  0.
-1.76359881651239e-09 5.605474357441612e-07  0.
-4.201524913805934e-09 5.571195334632981e-07  0.
-8.839814270127848e-09 5.495064765713511e-07  0.
-1.6591226858322327e-08 5.344885264459852e-07  0.
-2.8053905789672823e-08 5.079162564662574e-07  0.
-4.315133552090774e-08 4.654599234247249e-07  0.
-6.177607915462453e-08 4.0475345033285636e-07  0.
-9.251677803920046e-08 3.3760511602705104e-07  0.
-2.1705291609293504e-07 3.7804683182677083e-07  0.
0.0 1.6968579268121234e-06  0.
-6.5602117533145054e-18 1.6968579268101972e-06  0.
-9.009082413066354e-17 1.6968579267803084e-06  0.
-1.0911291545969321e-15 1.6968579263953745e-06  0.
-1.1575719397223649e-14 1.6968579220385074e-06  0.
-1.0655032300333034e-13 1.6968578790804376e-06  0.
-8.423699509348647e-13 1.6968575137848111e-06  0.
-5.660766254132933e-12 1.6968548631854908e-06  0.
-3.202301158568529e-11 1.6968386237494217e-06  0.
-1.5142773276698055e-10 1.6967553645793367e-06  0.
-5.976690683122125e-10 1.6963997740605739e-06  0.
-1.9822426424675436e-09 1.6951308255241228e-06  0.
-5.601859358038201e-09 1.6913024625990169e-06  0.
-1.3692421196450895e-08 1.6813777276024157e-06  0.
-2.9312376557970674e-08 1.658977756837413e-06  0.
-5.564296342208767e-08 1.6143860318424793e-06  0.
-9.46215870612232e-08 1.5352979064096634e-06  0.
-1.460358238977388e-07 1.4094816919990658e-06  0.
-2.1077690344640998e-07 1.2331786604323673e-06  0.
-3.2281280172032313e-07 1.0560530845379193e-06  0.
-7.046287379604507e-07 1.2167336859123682e-06  0.
0.0 3.917483711369676e-06  0.
-1.1436195325190447e-17 3.917483711366684e-06  0.
-1.6191731738300157e-16 3.9174837113194535e-06  0.
-2.02668301964583e-15 3.917483710691665e-06  0.
-2.2295856658896817e-14 3.917483703332314e-06  0.
-2.1362241726684417e-13 3.91748362790028e-06  0.
-1.7649447520436085e-12 3.917482958460502e-06  0.
-1.2441147266676652e-11 3.917477869199552e-06  0.
-7.402809650774282e-11 3.9174450977102375e-06  0.
-3.6835544721362453e-10 3.9172682759984375e-06  0.
-1.5242104294810437e-09 3.916475558895595e-06  0.
-5.252875775414579e-09 3.913530460009773e-06  0.
-1.5238473001101562e-08 3.904402476120473e-06  0.
-3.7818452088649085e-08 3.8804438946105815e-06  0.
-8.147368823806722e-08 3.826306021194843e-06  0.
-1.5445057098126786e-07 3.7195212690221216e-06  0.
-2.609402130787719e-07 3.533428634634116e-06  0.
-3.993658832630791e-07 3.2458500614961027e-06  0.
-5.772743420165399e-07 2.8665706958060547e-06  0.
-8.990570643474613e-07 2.5641807462322177e-06  0.
-1.7809928113996565e-06 3.063064150196049e-06  0.
0.0 6.827211290614096e-06  0.
-1.851177890981759e-17 6.827211290609944e-06  0.
-2.6884321337236736e-16 6.827211290542259e-06  0.
-3.459699196387405e-15 6.8272112896176965e-06  0.
-3.924060788638588e-14 6.827211278453207e-06  0.
-3.8884116827293904e-13 6.82721116021552e-06  0.
-3.333437692490895e-12 6.827210072501067e-06  0.
-2.44585579616793e-11 6.827201473163591e-06  0.
-1.5186303246989163e-10 6.82714372876662e-06  0.
-7.891017582924229e-10 6.826818386788578e-06  0.
-3.400692906622129e-09 6.825297881569565e-06  0.
-1.211064537557117e-08 6.819450027944263e-06  0.
-3.583422893797143e-08 6.8009469716254015e-06  0.
-8.94289611891348e-08 6.752253022339574e-06  0.
-1.9160441179887987e-07 6.643720614949284e-06  0.
-3.575541975005657e-07 6.435857394938303e-06  0.
-5.912432139986484e-07 6.089300420991274e-06  0.
-8.847113023129659e-07 5.589338244103822e-06  0.
-1.2693218104966603e-06 5.0213576468141755e-06  0.
-1.9804654043094404e-06 4.826326641982373e-06  0.
-3.454258394860807e-06 5.987763248235418e-06  0.
0.0 9.341507171091697e-06  0.
-2.7904111970528375e-17 9.341507171086364e-06  0.
-4.141880597597174e-16 9.341507170997974e-06  0.
-5.454604683716748e-15 9.34150716976376e-06  0.
-6.345956095215233e-14 9.341507154487704e-06  0.
-6.466549138537023e-13 9.341506988259349e-06  0.
-5.7160336431623986e-12 9.34150541285403e-06  0.
-4.3358495252286923e-11 9.341492547380644e-06  0.
-2.7891513884474815e-10 9.34140309658653e-06  0.
-1.5028075076745188e-09 9.340880568196387e-06  0.
-6.703195020682115e-09 9.338351153137761e-06  0.
-2.4544821221361762e-08 9.328331283599043e-06  0.
-7.372305990958066e-08 9.296095548398487e-06  0.
-1.8363468607297429e-07 9.211617334880025e-06  0.
-3.8699837783533193e-07 9.028314748798997e-06  0.
-7.029749911316351e-07 8.692538793379682e-06  0.
-1.1214603348744617e-06 8.171374126976061e-06  0.
-1.6258089582674245e-06 7.505843318093851e-06  0.
-2.2965840041069444e-06 6.979065394521132e-06  0.
-3.493955544424256e-06 7.413308555020682e-06  0.
-5.239900760290462e-06 9.328840514952368e-06  0.
0.0 1.1419669147982718e-05  0.
-3.93884001761918e-17 1.1419669147976488e-05  0.
-5.948037350752652e-16 1.1419669147871341e-05  0.
-7.983197406950144e-15 1.1419669146376316e-05  0.
-9.483405462635199e-14 1.1419669127497714e-05  0.
-9.887362660665434e-13 1.1419668917491719e-05  0.
-8.961552690096362e-12 1.1419666878531249e-05  0.
-6.985158202485311e-11 1.1419649782929113e-05  0.
-4.6257224668623193e-10 1.1419527507173605e-05  0.
-2.56802500035264e-09 1.1418791765832607e-05  0.
-1.1787729819943835e-08 1.1415124993238404e-05  0.
-4.418487145529098e-08 1.1400232624499649e-05  0.
-1.3429390916592238e-07 1.1351645647487099e-05  0.
-3.324080950482304e-07 1.1225199619894032e-05  0.
-6.833225456749075e-07 1.096046661898797e-05  0.
-1.1981824406654342e-06 1.0504424050384267e-05  0.
-1.8361062347440365e-06 9.857580930752587e-06  0.
-2.5818555955908218e-06 9.178577172603394e-06  0.
-3.6026775366303124e-06 9.02569300659142e-06  0.
-5.172991112046909e-06 1.0326368750767567e-05  0.
-6.771762718351644e-06 1.2372300196081509e-05  0.
0.0 1.3914030232862244e-05  0.
-5.210597812381875e-17 1.3914030232855654e-05  0.
-7.977363694105449e-16 1.3914030232743498e-05  0.
-1.0870641723874025e-14 1.3914030231124964e-05  0.
-1.3130103326389148e-13 1.3914030210354495e-05  0.
-1.3941471118971784e-12 1.3914029975183364e-05  0.
-1.2890769374287907e-11 1.3914027647256711e-05  0.
-1.026795571647205e-10 1.3914007713182778e-05  0.
-6.959069156783885e-10 1.391386186259978e-05  0.
-3.9572488161679955e-09 1.391296314174e-05  0.
-1.8591838400364724e-08 1.390837685425953e-05  0.
-7.104704198677766e-08 1.3889359555386912e-05  0.
-2.180351664015917e-07 1.3826559411595264e-05  0.
-5.356095919032939e-07 1.366419809129742e-05  0.
-1.0697661672473604e-06 1.3337214080310755e-05  0.
-1.8019640563176044e-06 1.2815631780758897e-05  0.
-2.671007806530241e-06 1.2158077913832957e-05  0.
-3.6886088626208306e-06 1.1669755787813777e-05  0.
-5.1253664265926775e-06 1.2055255496010278e-05  0.
-6.832241950947749e-06 1.3612115047876043e-05  0.
-8.272252620882436e-06 1.4795268696325882e-05  0.
0.0 1.6346427482083327e-05  0.
-6.467074444869223e-17 1.634642748207724e-05  0.
-1.000420897619493e-15 1.6346427481972406e-05  0.
-1.3791348864324331e-14 1.6346427480441808e-05  0.
-1.6870370967298826e-13 1.6346427460556595e-05  0.
-1.8163340957781428e-12 1.6346427232345505e-05  0.
-1.70512879299042e-11 1.6346424939696846e-05  0.
-1.3807645143733525e-10 1.6346404988997398e-05  0.
-9.52465005719209e-10 1.634625646456263e-05  0.
-5.516408803568757e-09 1.6345324382545093e-05  0.
-2.6385534142298586e-08 1.6340479830373256e-05  0.
-1.0236482840338986e-07 1.632005850588895e-05  0.
-3.1658969734203356e-07 1.625191695787344e-05  0.
-7.72396592466411e-07 1.607655008654212e-05  0.
-1.5004008413323936e-06 1.5735767966030342e-05  0.
-2.4281524978564416e-06 1.523802535670035e-05  0.
-3.5194944221124595e-06 1.4709461409490698e-05  0.
-4.844560736393161e-06 1.452976081650293e-05  0.
-6.563904794374682e-06 1.5285078800593072e-05  0.
-8.231023649385169e-06 1.6302979978553883e-05  0.
-9.493896605456741e-06 1.659299563422035e-05  0.
0.0 1.8642012911579228e-05  0.
-7.539506146495437e-17 1.864201291157451e-05  0.
-1.1750846129578893e-15 1.8642012911492525e-05  0.
-1.6331939052202185e-14 1.8642012910286876e-05  0.
-2.0157228488379542e-13 1.8642012894488817e-05  0.
-2.1915154045039913e-12 1.8642012711482544e-05  0.
-2.0794112313048828e-11 1.864201085406266e-05  0.
-1.7034725550149583e-10 1.8641994509731874e-05  0.
-1.1897533113670165e-09 1.8641871359375313e-05  0.
-6.980489343105986e-09 1.864108863516131e-05  0.
-3.3816059939514955e-08 1.8636967678916522e-05  0.
-1.3262964589267844e-07 1.8619390591781814e-05  0.
-4.125938006566055e-07 1.8560275854672335e-05  0.
-1.0017002528768243e-06 1.840846902395636e-05  0.
-1.903082905417803e-06 1.8121513862395473e-05  0.
-2.9748949555850936e-06 1.7739268675858194e-05  0.
-4.2414832255481536e-06 1.7426868402829967e-05  0.
-5.830487619516182e-06 1.7488765980240142e-05  0.
-7.463884873601808e-06 1.813678474622802e-05  0.
-9.009031881109516e-06 1.8585800195252988e-05  0.
-1.0112224143692889e-05 1.887425189141462e-05  0.
0.0 2.108773946789716e-05  0.
-8.265104714321534e-17 2.1087739467894554e-05  0.
-1.2937848626488652e-15 2.1087739467849583e-05  0.
-1.8068936490293166e-14 2.10877394671847e-05  0.
-2.2419595363855368e-13 2.108773945842694e-05  0.
-2.4516606489339803e-12 2.1087739356393664e-05  0.
-2.3410300221530476e-11 2.1087738314324893e-05  0.
-1.9310278921403827e-10 2.1087729082069833e-05  0.
-1.3586677658279632e-09 2.108765900884907e-05  0.
-8.033184951939904e-09 2.108721016573158e-05  0.
-3.921310664575682e-08 2.1084828381674657e-05  0.
-1.5481604095756811e-07 2.1074594652300252e-05  0.
-4.834034343250654e-07 2.1039992071903234e-05  0.
-1.1704986025396234e-06 2.095117626579405e-05  0.
-2.1933990886790203e-06 2.0786113294145465e-05  0.
-3.347849191569296e-06 2.058143362443389e-05  0.
-4.698090696108029e-06 2.0463838231482252e-05  0.
-6.410703028465321e-06 2.0580423288814965e-05  0.
-7.911417254465658e-06 2.0817754312809088e-05  0.
-9.221150369185518e-06 2.1024512696674412e-05  0.
-1.0499950452971837e-05 2.1478074506818602e-05  0.
0.0 2.344999999999997e-05  0.
-8.521401070993294e-17 2.344999999999997e-05  0.
-1.3358743242568883e-15 2.344999999999997e-05  0.
-1.8686471101033406e-14 2.344999999999997e-05  0.
-2.322667461319071e-13 2.344999999999997e-05  0.
-2.5448125627975764e-12 2.344999999999997e-05  0.
-2.4350917863873347e-11 2.344999999999997e-05  0.
-2.0132066538165555e-10 2.344999999999997e-05  0.
-1.4199607995888383e-09 2.344999999999997e-05  0.
-8.417109158770442e-09 2.344999999999997e-05  0.
-4.119153837601719e-08 2.344999999999997e-05  0.
-1.6298761206703953e-07 2.344999999999997e-05  0.
-5.095729261551008e-07 2.344999999999997e-05  0.
-1.2328665228875205e-06 2.344999999999997e-05  0.
-2.2996970227905504e-06 2.344999999999997e-05  0.
-3.4800538483191733e-06 2.344999999999997e-05  0.
-4.844664404424876e-06 2.344999999999997e-05  0.
-6.577977101207936e-06 2.344999999999997e-05  0.
-8.090883303265558e-06 2.344999999999997e-05  0.
-9.241205734252044e-06 2.344999999999997e-05  0.
-1.0696358365865304e-05 2.344999999999997e-05  0.
</DataArray>
<DataArray type="Float64" Name="sigma_xx" NumberOfComponents="1" format="ascii" >
0.028738300628106107 
0.028738300628106107 
0.02873814519688266 
0.02873798976565921 
0.028737534574219115 
0.028736346635582766 
0.028733204704423077 
0.02872505566742233 
0.02870476079053218 
0.028658242445800387 
0.028561697451578983 
0.028375179983441957 
0.02803784981963985 
0.027465851815122722 
0.0265554467304696 
0.025189839103489924 
0.023254298486818918 
0.020655754884302262 
0.017298507071217266 
0.011882517192418613 
0.008348965963023144 
0.22289163847943874 
0.22289163847943874 
0.22289156076382702 
0.22289111112350204 
0.2228894679934256 
0.22288422774074937 
0.22286724687958773 
0.22281850808880668 
0.22269293631360645 
0.22239667885060035 
0.22175569158733302 
0.2204749549594708 
0.21809477002143746 
0.21396514560123586 
0.20725542393407176 
0.19701202891297948 
0.18227939158066414 
0.1622627532338327 
0.13620434780037266 
0.09547584389757442 
0.06939246954829056 
2.7148997716608383 
2.7148997716608383 
2.71489940528724 
2.7148970349610826 
2.7148862491443984 
2.714844582474284 
2.714700519934609 
2.7142602443408483 
2.713059293890651 
2.7100961974557682 
2.7034282035209847 
2.6896385729724406 
2.6632698379991373 
2.6164081845525535 
2.5386882374078814 
2.4179680258029626 
2.2418320810846373 
1.9996744760053522 
1.6810866643179874 
1.178728731288103 
0.8562308861925767 
28.96617616876539 
28.966176024436397 
28.966173964972686 
28.966161641497113 
28.966098292171328 
28.965821208259957 
28.964778830964367 
28.961364417767744 
28.951473013405494 
28.925811934588086 
28.865549961398774 
28.7363622120118 
28.48170300717711 
28.01742405855733 
27.230688448565125 
25.986564949898032 
24.144184751495594 
21.579981790420526 
18.16748483318697 
12.718383418652829 
9.205656936739356 
269.42806247154385 
269.4280616721833 
269.42805381735536 
269.4279987058844 
269.42767893944887 
269.42612223468376 
269.4197191954738 
269.3970669709332 
269.32707964388834 
269.13533959227453 
268.66412369819227 
267.614529525506 
265.47840846768963 
261.47837567935807 
254.5478049731375 
243.38394838674384 
226.59937675972844 
202.94451680558095 
171.0792137787908 
119.50185499765003 
86.10464812264235 
2160.7508503107547 
2160.7508474685837 
2160.750819579781 
2160.750605578742 
2160.7492299791083 
2160.741834739132 
2160.7084583874494 
2160.580571192171 
2160.1573033436234 
2158.9294702695206 
2155.763318983927 
2148.425133047249 
2132.98810229634 
2103.2830077982726 
2050.6446970769416 
1964.281500047015 
1832.4750380493965 
1644.4028975298725 
1387.8168521247453 
966.4233318190659 
692.2799090258721 
14746.000690013525 
14746.000681703503 
14746.000593340854 
14745.99986459046 
14745.994765269494 
14745.964772855385 
14745.816875078028 
14745.202202459668 
14743.021361562907 
14736.30934819003 
14718.136103300523 
14674.277805978849 
14578.931097544708 
14390.468106001414 
14049.214607161903 
13479.494958584797 
12597.81114661129 
11325.141086721 
9566.203517705206 
6632.655584828948 
4714.767998664768 
84291.61808334306 
84291.6180612829 
84291.61781312585 
84291.61561943064 
84291.59909385529 
84291.49389589939 
84290.93144439734 
84288.40629263742 
84278.81217946683 
84247.52616318085 
84158.64913326186 
83935.67408311318 
83435.60592403151 
82422.71619399996 
80553.341076367 
77386.38101119908 
72429.52973343928 
65206.85655530266 
55097.24097515487 
37965.48507811191 
26709.273078773233 
395796.2540401037 
395796.2539867575 
395796.25335728884 
395796.2474550102 
395796.20005022455 
395795.87674358196 
395794.0194937668 
395785.07040436956 
395748.8103616679 
395623.9736681492 
395253.2647468281 
394290.3002054853 
392072.5893292092 
387492.4989024586 
378923.45085774036 
364273.51194096555 
341206.94059509557 
307427.32093594613 
259606.84730736972 
177284.24059950112 
122937.58344596444 
1489175.9134094012 
1489175.9132908739 
1489175.9118368148 
1489175.8975057118 
1489175.7758700158 
1489174.895287287 
1489169.5087005603 
1489141.8636140707 
1489023.0738404281 
1488593.3477820405 
1487267.5954642305 
1483725.1031490911 
1475413.7341869916 
1458062.1076389072 
1425467.8167132712 
1369792.7078720662 
1282484.8791644494 
1155058.3131022553 
973199.7242681475 
655711.0516604817 
445290.44830635114 
4344514.060903025 
4344514.060661347 
4344514.057588571 
4344514.025967576 
4344513.744553899 
4344511.599881827 
4344497.7469177935 
4344422.60365784 
4344082.334578155 
4342795.628524353 
4338696.833194371 
4327531.036156766 
4301116.240192588 
4246094.072659789 
4143825.9398490125 
3972194.5829740046 
3708739.09061485 
3331390.7254614215 
2792010.287297702 
1841751.4626708976 
1210932.9867547306 
9411230.499116637 
9411230.498662384 
9411230.492697623 
9411230.428999033 
9411229.83866094 
9411225.137621488 
9411193.32047806 
9411012.264318608 
9410153.84484629 
9406778.732602732 
9395740.11863966 
9365345.068423653 
9293721.579696437 
9147184.81837349 
8883101.351693545 
8458228.476805817 
7837872.257051539 
6989120.882583545 
5788802.543890351 
3681869.8892186014 
2289131.200793175 
14402502.960207105 
14402502.959416088 
14402502.948745918 
14402502.831149833 
14402501.70312012 
14402492.378911309 
14402426.713957861 
14402037.422239043 
14400117.067368042 
14392307.02585804 
14366206.584103404 
14294089.038577154 
14126861.0276439 
13796283.400958937 
13232273.20904304 
12389500.52295612 
11267557.593008164 
9863875.967096847 
7940936.299877523 
4694701.428667933 
2595316.6977195777 
15228672.642428081 
15228672.641148012 
15228672.623487849 
15228672.423595442 
15228670.449557597 
15228653.61051267 
15228530.975022431 
15227778.227950124 
15223936.921042006 
15207852.601021167 
15153130.249109859 
15002155.45864294 
14661212.025218878 
14020885.238156378 
13010447.845606942 
11659628.71230755 
10101958.949698113 
8420324.127692312 
6243930.262794453 
3049479.391954871 
1158551.620458595 
12888675.235068653 
12888675.233136782 
12888675.205971248 
12888674.891535286 
12888671.709746758 
12888643.843529023 
12888435.109187547 
12887115.875260957 
12880187.431656457 
12850442.7736966 
12747698.933240538 
12465397.161215544 
11849036.008566104 
10767335.70161663 
9226368.189069433 
7455832.265425326 
5781300.500587476 
4263776.8610592075 
2366252.1862801993 
453209.473792518 
-303717.6231444203 
12832578.23692991 
12832578.234203152 
12832578.19524794 
12832577.735965068 
12832572.994350856 
12832530.557069067 
12832205.229431538 
12830098.875369515 
12818769.089472454 
12769096.470137995 
12595307.341591842 
12120241.752363427 
11121320.857265374 
9508647.33804125 
7493544.306058531 
5578480.911114214 
4169048.468247275 
2907609.2437781845 
1183166.4970653967 
11505.006032802281 
-142871.94624297594 
13828910.837019809 
13828910.833413742 
13828910.781237137 
13828910.156945014 
13828903.607726384 
13828843.969024785 
13828378.23757935 
13825304.006837025 
13808447.247710135 
13733271.591475435 
13467482.118651072 
12744633.135414075 
11281052.881910633 
9133593.899865678 
6863648.783392906 
5123711.728589273 
4058097.0589339826 
2701741.4891591906 
844916.1524487938 
-306851.9782170431 
-564446.9111862471 
13269673.052500458 
13269673.04802506 
13269672.982637767 
13269672.191424094 
13269663.78898276 
13269586.257002696 
13268972.182397868 
13264858.434427842 
13241966.419549985 
13138518.076443747 
12769738.685026119 
11771107.11854988 
9816431.223889316 
7218370.973129985 
4991485.5132735465 
3608918.661788202 
2509084.2073468957 
874412.7461836617 
-864898.2692170038 
-1003201.27200866 
-450074.05034194386 
13307177.17389522 
13307177.16867745 
13307177.091916904 
13307176.155676892 
13307166.127053766 
13307072.724525254 
13306325.551789787 
13301267.71673728 
13272826.538374128 
13143085.672745675 
12677801.407650277 
11421752.25428536 
9027396.08042202 
6114494.9559970265 
4157812.955059606 
3140448.662412773 
1554019.216142724 
-62289.3604895706 
-959898.8314989953 
-98889.16405028885 
1154164.125320048 
13494737.035724886 
13494737.030005451 
13494736.94552087 
13494735.91019319 
13494724.76321489 
13494620.368820304 
13493780.310879257 
13488058.329516 
13455681.507950757 
13307151.733531522 
12772547.489388686 
11332015.332230326 