<?xml version="1.0"?>
<VTKFile type="UnstructuredGrid" version="0.1" byte_order="LittleEndian" compressor="vtkZLibDataCompressor">
<UnstructuredGrid>
<Piece NumberOfPoints="441" NumberOfCells="400">
<PointData>
<DataArray type="Float64" Name="displacement" NumberOfComponents="3" format="ascii" >
0.0 2.7679285840423143e-33  0.
4.188055320756862e-33 1.3708244146275181e-33  0.
5.6934080211796675e-33 2.3684644169896943e-34  0.
4.6775155052124656e-33 -1.3307913923657677e-33  0.
2.2750135391389804e-33 -1.0408112368719427e-33  0.
1.4181929500008479e-34 -1.0978567001778499e-33  0.
-3.631102779082928e-33 -2.6705987731344755e-33  0.
-1.9112678650782078e-32 -1.277793146356031e-32  0.
-9.964361154594615e-32 -6.756618125389379e-32  0.
-7.536629773495067e-31 -5.8563596560609485e-31  0.
-3.4854959566377254e-30 -2.1523654343625215e-30  0.
-8.68322885560321e-30 -3.013014070084905e-30  0.
-1.6526881036903005e-29 -4.903230376811004e-30  0.
-2.4657054290916997e-29 -3.1452328049235194e-30  0.
-3.102470893128304e-29 -3.275628918087077e-30  0.
-3.639886127854504e-29 -2.0814214678837462e-30  0.
-4.094247027848432e-29 -2.442287368120102e-30  0.
-4.4317301589008865e-29 -1.0336855924785935e-30  0.
-4.186922798367151e-29 3.926739536911092e-30  0.
-2.688423380634978e-29 8.477837561568801e-30  0.
-1.5801982225845187e-29 2.0622834871098628e-29  0.
0.0 2.8513925237316413e-30  0.
2.6720370983155547e-30 -2.881603486015863e-31  0.
2.527568077238765e-30 3.5195451825681205e-31  0.
1.8940097490660504e-30 -1.106773084907225e-30  0.
3.987624546066955e-31 -3.631538797441232e-31  0.
-4.0072227845185046e-32 -7.908290106838198e-32  0.
-2.6899692515415035e-31 -1.5354419190959503e-31  0.
-1.5933413531155487e-30 -1.184902028432297e-30  0.
-7.98958088928515e-30 -5.3000737031073136e-30  0.
-3.2397649355617233e-29 -1.9711446637691368e-29  0.
-2.5063718176648225e-28 -2.0175418840054127e-28  0.
-1.2194308454807069e-27 -7.603995403352528e-28  0.
-2.633122202485541e-27 -7.034229243769771e-28  0.
-4.679578134142147e-27 -1.3039314364983184e-27  0.
-7.077464023179566e-27 -1.1999266675402539e-27  0.
-9.125411821624921e-27 -6.800841042785768e-28  0.
-1.0982424182001577e-26 -1.2351081326616712e-27  0.
-1.2240006420662169e-26 -1.5048877221767826e-28  0.
-1.221519475745071e-26 4.651389963994283e-28  0.
-8.344715305232264e-27 2.4501483974405354e-27  0.
-5.1815507882862814e-27 6.692475716929282e-27  0.
0.0 -4.507250123414668e-28  0.
2.5477899963592707e-27 2.6256897376402657e-27  0.
2.451629639820788e-27 -2.1489251500515327e-27  0.
2.6484126675717077e-28 -2.3818020740726056e-28  0.
1.2608438911545736e-29 -1.300364382971333e-29  0.
-3.647032574632884e-30 -4.163790708335624e-30  0.
-5.098552528936506e-29 -4.350873902776664e-29  0.
-1.9759355115256065e-28 -1.0600868632792996e-28  0.
-1.5834884320516714e-27 -1.3194224479222842e-27  0.
-7.167485051013374e-27 -4.3094067114848535e-27  0.
-2.189937337965554e-26 -1.1042605104906222e-26  0.
-1.259397797063133e-25 -9.387314504799925e-26  0.
-5.576898572549999e-25 -3.6849619370081296e-25  0.
-1.18118795744272e-24 -2.1416494257503855e-25  0.
-2.4860771238350637e-24 -9.301921908175945e-25  0.
-5.231814099914696e-24 -1.016896250099744e-24  0.
-5.3537531626104585e-24 7.2502995320647755e-25  0.
-5.689022793621395e-24 -1.2346818494287594e-24  0.
-7.459141984917385e-24 -4.6646731768860554e-26  0.
-5.39049814311903e-24 1.085571406850691e-24  0.
-4.07417693062666e-24 4.222349681263655e-24  0.
0.0 1.4945204025919033e-20  0.
2.3021981602101794e-24 1.4940938060183817e-20  0.
8.833192999681023e-26 1.4942202691538596e-20  0.
3.0266471892511182e-27 1.4942292598325633e-20  0.
1.4451328971533837e-28 1.4942295578412017e-20  0.
-2.088540151997327e-28 1.4942295567962084e-20  0.
-2.176813708057189e-27 1.4942293904101787e-20  0.
-3.151855672054713e-26 1.4942267316804483e-20  0.
-1.5705028845055313e-25 1.494219418978601e-20  0.
-1.7761314344537648e-24 1.4941018818681577e-20  0.
-5.9812451466870444e-24 1.4939824876747567e-20  0.
-1.4553338416348918e-23 1.493736864752235e-20  0.
-4.25093973675943e-23 1.491863495958083e-20  0.
-1.7101871868987685e-22 1.4869987544483987e-20  0.
-4.387404433578797e-22 1.4799878591738198e-20  0.
-7.423387779014539e-22 1.3047345900138394e-20  0.
-6.574775918112839e-22 1.1272040525852976e-20  0.
-9.65291087469085e-22 1.0076334124282027e-20  0.
-1.4550037982751439e-21 7.409900643802427e-21  0.
-1.342449807739003e-21 4.7486116898183305e-21  0.
-2.8588081284118637e-21 4.876563758865076e-21  0.
0.0 7.526484806381551e-19  0.
1.0403123581413691e-23 7.53505277728293e-19  0.
-4.022102334237209e-25 7.535189346821002e-19  0.
2.603282460373919e-26 7.535185984368443e-19  0.
4.57644649719476e-28 7.535186281752128e-19  0.
-7.64264514122836e-27 7.535186217175234e-19  0.
-9.723395810462487e-26 7.535185431636198e-19  0.
-1.1568345680157613e-24 7.535175873793291e-19  0.
-1.5237279190571972e-23 7.535072236588459e-19  0.
-1.5936402106368316e-22 7.534082010154111e-19  0.
-4.250964953264921e-22 7.523439848661894e-19  0.
-1.3817360755892285e-21 7.507363374918512e-19  0.
-2.816094082428786e-21 7.462363675174531e-19  0.
-6.212576348873012e-21 7.385724657206316e-19  0.
-1.1743379360531937e-20 7.1621613773679325e-19  0.
-1.7670808059744284e-20 6.91375992728578e-19  0.
-2.605621423864911e-20 6.522488817504138e-19  0.
-3.891778185188912e-20 5.911300574049195e-19  0.
-5.156304152258652e-20 5.058021739253127e-19  0.
-6.762239209602048e-20 3.982032799159936e-19  0.
-2.0643991704392978e-19 4.016687496248985e-19  0.
0.0 2.363412258262635e-17  0.
-2.339300347101202e-22 2.363237820768085e-17  0.
3.4475765251391955e-24 2.363220938231295e-17  0.
-7.710940054715323e-26 2.3632211052986547e-17  0.
-3.1180513512511713e-27 2.363221103150713e-17  0.
-2.6986146165334226e-25 2.3632210742383647e-17  0.
-4.697082640878438e-24 2.3632207059680136e-17  0.
-6.711177203680801e-23 2.3632213678399955e-17  0.
-6.337201624657427e-22 2.3631411838970402e-17  0.
-3.0989554555536917e-21 2.3627273087258364e-17  0.
-1.2492844773360994e-20 2.3614367878613273e-17  0.
-3.167011293844946e-20 2.357300903624229e-17  0.
-7.621944099632396e-20 2.3472363555891655e-17  0.
-1.602159046260731e-19 2.3258731386936113e-17  0.
-3.0458293662180214e-19 2.282934474830042e-17  0.
-5.222587273356621e-19 2.206175543593796e-17  0.
-8.325404515027919e-19 2.0784171225111047e-17  0.
-1.2092228052098714e-18 1.8873816712468654e-17  0.
-1.6437699570388911e-18 1.6198807859515043e-17  0.
-2.1753704495523483e-18 1.2843917782586118e-17  0.
-6.900872141896602e-18 1.3075891322771519e-17  0.
0.0 6.48970508852588e-16  0.
-3.667950537895866e-22 6.489759323794185e-16  0.
-2.22958977520749e-23 6.489765213280313e-16  0.
-5.995747804594835e-27 6.489765065389327e-16  0.
-3.0569973320942914e-26 6.489765065411622e-16  0.
-5.2595363172447e-25 6.48976505300739e-16  0.
-2.132422061044302e-22 6.489763237681458e-16  0.
-1.6972423661941348e-21 6.489737980085307e-16  0.
-1.3026591273720883e-20 6.48960541657356e-16  0.
-6.694075668097376e-20 6.488907932360197e-16  0.
-2.2962623845889043e-19 6.486247276856295e-16  0.
-6.728470707283175e-19 6.478087821484157e-16  0.
-1.696399081431345e-18 6.456489877949637e-16  0.
-3.78189964004199e-18 6.406228789402567e-16  0.
-7.529967505164146e-18 6.302065268509813e-16  0.
-1.351824694579056e-17 6.107532228202037e-16  0.
-2.2094192695396383e-17 5.77755523110964e-16  0.
-3.306336884070641e-17 5.265633923919434e-16  0.
-4.561922174374777e-17 4.53605410946095e-16  0.
-6.139988933498584e-17 3.6077386558518564e-16  0.
-1.9498992603827314e-16 3.685727374987937e-16  0.
0.0 1.5449671234986302e-14  0.
-1.6511352908694486e-21 1.5449669781232093e-14  0.
3.5204290533733713e-23 1.544966785043605e-14  0.
-1.3396953449246788e-24 1.544966782743474e-14  0.
-1.0498169249002903e-26 1.5449667825839028e-14  0.
-4.588867708849577e-24 1.5449667820210335e-14  0.
-5.352328752051493e-22 1.544966751572334e-14  0.
-1.676563929953326e-20 1.54496548615625e-14  0.
-1.5966557171241882e-19 1.5449511072376735e-14  0.
-8.572314380097747e-19 1.5448645581314836e-14  0.
-3.525699239750594e-18 1.5444823205430598e-14  0.
-1.1538527156125186e-17 1.5431473781830517e-14  0.
-3.1969174434478294e-17 1.539250276421052e-14  0.
-7.619322574082391e-17 1.5294841509120298e-14  0.
-1.602501169801087e-16 1.5080132599313387e-14  0.
-3.0025932602457495e-16 1.4660118187414672e-14  0.
-5.078862465460135e-16 1.3920580729113238e-14  0.
-7.802510361892642e-16 1.2738933437555945e-14  0.
-1.0989059509927362e-15 1.1016659399485054e-14  0.
-1.5053415786103906e-15 8.795447322862073e-15  0.
-4.780619142106501e-15 9.019644609666458e-15  0.
0.0 3.1529255859496376e-13  0.
-1.1327094380660358e-21 3.152925478292891e-13  0.
-5.61226057251835e-23 3.1529255014546865e-13  0.
3.29594432954515e-24 3.1529255015075354e-13  0.
-1.0254497454905979e-25 3.15292550150711e-13  0.
-3.204098609889206e-23 3.1529255010574515e-13  0.
-3.3345517642200655e-21 3.152925466902511e-13  0.
-9.71107169942572e-20 3.152924778657683e-13  0.
-1.0763146539499578e-18 3.152916309577172e-13  0.
-8.417757762083352e-18 3.1528400929952183e-13  0.
-4.164291090370149e-17 3.152421475719236e-13  0.
-1.6043666948759528e-16 3.1506849327949764e-13  0.
-4.9275482722878e-16 3.144977730181497e-13  0.
-1.2826054336859898e-15 3.1292821310898566e-13  0.
-2.8697234359679917e-15 3.0922705017232584e-13  0.
-5.664921843786181e-15 3.015729414378841e-13  0.
-9.951706274133587e-15 2.87504121201512e-13  0.
-1.576792282831962e-14 2.6425799893311375e-13  0.
-2.2709076889711882e-14 2.2950903663841874e-13  0.
-3.175913808190192e-14 1.8402177889203225e-13  0.
-1.00697494436767e-13 1.8956045273379478e-13  0.
0.0 5.443970075672733e-12  0.
-7.947860502190346e-22 5.443970083831708e-12  0.
1.0808153335864458e-22 5.443970082470143e-12  0.
2.8287385160087627e-24 5.443970082444966e-12  0.
-6.274718002656364e-26 5.443970082449906e-12  0.
-1.0992689717953844e-22 5.44397008223582e-12  0.
-2.0118287945736957e-20 5.44397006862258e-12  0.
-3.852823518065476e-19 5.4439698311603236e-12  0.
-5.207813883813812e-18 5.443966256113471e-12  0.
-5.27916174462798e-17 5.443925367220183e-12  0.
-3.737252273706546e-16 5.44359076400943e-12  0.
-1.7092962008394978e-15 5.441883486713521e-12  0.
-6.131838692601227e-15 5.435266266780147e-12  0.
-1.7562556040986417e-14 5.414916784621286e-12  0.
-4.269718216660007e-14 5.362510544162386e-12  0.
-8.916945913258633e-14 5.246832718683309e-12  0.
-1.6427054647820423e-13 5.023080730573468e-12  0.
-2.6899650965480583e-13 4.6388640788086205e-12  0.
-3.9799730642406293e-13 4.047765074256048e-12  0.
-5.693643433212301e-13 3.2614665812694582e-12  0.
-1.7998592230125802e-12 3.3780398328507517e-12  0.
0.0 7.829746670723159e-11  0.
-1.3869676886647484e-21 7.829746671594394e-11  0.
3.7770380015799773e-23 7.829746671628587e-11  0.
-4.829006267553922e-24 7.829746671651841e-11  0.
-4.121182842389711e-24 7.829746671651782e-11  0.
-4.532412789089118e-22 7.829746671591461e-11  0.
-6.451048402092927e-20 7.829746668443042e-11  0.
-1.2502127989496787e-18 7.829746601293721e-11  0.
-1.9613310546203653e-17 7.829745430677241e-11  0.
-2.399814579230932e-16 7.829729361335091e-11  0.
-2.1818375156939373e-15 7.829563293110911e-11  0.
-1.3877324376208282e-14 7.828336402688169e-11  0.
-5.831034925824768e-14 7.822563467531899e-11  0.
-1.9333990428293982e-13 7.801802812896816e-11  0.
-5.129879553928141e-13 7.742436566906401e-11  0.
-1.1569468353155853e-12 7.600197547749928e-11  0.
-2.2400919343680344e-12 7.308218008544022e-11  0.
-3.825709682331318e-12 6.78355232294335e-11  0.
-5.820694544997219e-12 5.949573414322152e-11  0.
-8.562534839720493e-12 4.8213119038838105e-11  0.
-2.6884170624911842e-11 5.0269735173037156e-11  0.
0.0 9.205365267362304e-10  0.
-9.425514362523757e-22 9.205365267200891e-10  0.
-3.780376818919587e-22 9.205365267225675e-10  0.
9.71446887171239e-24 9.205365267222866e-10  0.
-1.0660686060104928e-23 9.205365267222712e-10  0.
-3.516516136334936e-21 9.205365267192502e-10  0.
-1.6480011832726376e-19 9.205365266466863e-10  0.
-3.4546468352431762e-18 9.2053652500661e-10  0.
-6.047625602884215e-17 9.205364936462211e-10  0.
-8.510623834312243e-16 9.205360023951784e-10  0.
-9.28085595881331e-15 9.205299529435957e-10  0.
-7.48809235781217e-14 9.204741189206536e-10  0.
-4.23503192263138e-13 9.201056496256446e-10  0.
-1.6218045410015127e-12 9.185195880048426e-10  0.
-4.926869826104405e-12 9.132708652480749e-10  0.
-1.2012890342425317e-11 8.994233475567857e-10  0.
-2.492494434954497e-11 8.68803082100155e-10  0.
-4.439560972698997e-11 8.108228437924149e-10  0.
-7.004243279134014e-11 7.151238563445841e-10  0.
-1.0610339811209539e-10 5.834288250881645e-10  0.
-3.298149899153135e-10 6.135267011045832e-10  0.
0.0 8.645885328408228e-09  0.
-6.570435865499972e-21 8.645885328399369e-09  0.
1.3704287414552783e-21 8.645885328396384e-09  0.
-6.409446096949758e-23 8.645885328397408e-09  0.
4.292264097246771e-23 8.645885328397377e-09  0.
-1.0753064621101126e-20 8.645885328392308e-09  0.
-3.6644145172422964e-19 8.645885328254377e-09  0.
-8.262879300853195e-18 8.645885324875589e-09  0.
-1.5779604249411953e-16 8.64588525410626e-09  0.
-2.4710130802355224e-15 8.645884028037139e-09  0.
-3.084224205287938e-14 8.645866895434796e-09  0.
-2.9615463532386674e-13 8.645679886898302e-09  0.
-2.093377665863263e-12 8.644157147118393e-09  0.
-1.0396829203639348e-11 8.635297944699575e-09  0.
-3.593417160080185e-11 8.60076278342422e-09  0.
-9.892012416383641e-11 8.496691157895616e-09  0.
-2.194597218188246e-10 8.245872083631026e-09  0.
-4.147611805966776e-10 7.739338432461743e-09  0.
-6.772109874133254e-10 6.8673434364721855e-09  0.
-1.06575251897701e-09 5.648931511036002e-09  0.
-3.2489908562678567e-09 6.005226069609858e-09  0.
0.0 6.304655474434167e-08  0.
-6.5598256478111625e-21 6.304655474434694e-08  0.
1.1558046420006634e-21 6.30465547443456e-08  0.
-6.202682301922949e-23 6.30465547443442e-08  0.
8.010703386959513e-23 6.304655474434414e-08  0.
-2.3165754267811755e-20 6.304655474433693e-08  0.
-7.238891447237808e-19 6.304655474410676e-08  0.
-1.7405686530265494e-17 6.304655473798514e-08  0.
-3.56157366250766e-16 6.304655460122203e-08  0.
-6.0606937314068605e-15 6.304655203863333e-08  0.
-8.38290552629275e-14 6.304651258549865e-08  0.
-9.162778845741234e-13 6.304602637430239e-08  0.
-7.635841565364953e-12 6.304138551687672e-08  0.
-4.654105807237685e-11 6.300855104614285e-08  0.
-1.9994219302413305e-10 6.284289876257756e-08  0.
-6.160911031792826e-10 6.226566691715983e-08  0.
-1.5152295113921527e-09 6.070338368863175e-08  0.
-3.0227909646819814e-09 5.731039172135753e-08  0.
-5.179451701737804e-09 5.117878283929203e-08  0.
-8.458715822859361e-09 4.253381469655145e-08  0.
-2.5059927265741785e-08 4.589460073505011e-08  0.
0.0 3.443494438718261e-07  0.
-1.3332117228735618e-21 3.4434944387183796e-07  0.
5.2570280054326715e-22 3.4434944387183246e-07  0.
-7.372173798975571e-24 3.443494438718342e-07  0.
1.684272596866942e-23 3.443494438718338e-07  0.
-4.1317217148114306e-20 3.4434944387182505e-07  0.
-1.2958392089966244e-18 3.4434944387146066e-07  0.
-3.266214233726068e-17 3.4434944386175065e-07  0.
-7.061270778388752e-16 3.4434944363303164e-07  0.
-1.2824976137153117e-14 3.443494390763212e-07  0.
-1.9202303359212902e-13 3.4434936349171306e-07  0.
-2.3146218079975783e-12 3.443483421478047e-07  0.
-2.1810848721804073e-11 3.443373993967895e-07  0.
-1.5491163974122366e-10 3.4424760941752195e-07  0.
-7.980315217187132e-10 3.4370635583905184e-07  0.
-2.911599391410021e-09 3.413882261337173e-07  0.
-7.872098989068971e-09 3.342947509366517e-07  0.
-1.6997573097321386e-08 3.1739486881111223e-07  0.
-3.037377990719531e-08 2.8530285920289164e-07  0.
-5.2007268574011745e-08 2.403665233809958e-07  0.
-1.4620234779212744e-07 2.646653355723053e-07  0.
0.0 1.346864436549567e-06  0.
1.0409576844609318e-21 1.3468644365495608e-06  0.
1.1638254746527712e-21 1.3468644365495678e-06  0.
-2.5066500242241207e-22 1.346864436549566e-06  0.
-2.5444442260337247e-22 1.3468644365495661e-06  0.
-6.653431447967964e-20 1.3468644365495494e-06  0.
-2.103417505836769e-18 1.34686443654908e-06  0.
-5.50622209361624e-17 1.3468644365355338e-06  0.
-1.2425775312541715e-15 1.3468644362040809e-06  0.
-2.3746623899177763e-14 1.3468644292764353e-06  0.
-3.7794211929686364e-13 1.3468643075823485e-06  0.
-4.908158061859594e-12 1.3468625434985356e-06  0.
-5.0701154890860987e-11 1.34684193755776e-06  0.
-4.037843959109473e-10 1.346653421301543e-06  0.
-2.3879261890025445e-09 1.3453525456448318e-06  0.
-1.0132511831580315e-08 1.3388455905450964e-06  0.
-3.071012236085039e-08 1.3158538519982486e-06  0.
-7.144834167310644e-08 1.2557851299655914e-06  0.
-1.3465428582747182e-07 1.1359036071584151e-06  0.
-2.406126381163965e-07 9.756822044507546e-07  0.
-6.21089775350913e-07 1.1057729557049083e-06  0.
0.0 3.5930355597578184e-06  0.
-9.155386649935983e-22 3.5930355597578066e-06  0.
1.8066715550177668e-21 3.5930355597578053e-06  0.
-8.0496193317468e-23 3.593035559757809e-06  0.
7.735490463955172e-23 3.5930355597578066e-06  0.
-9.611988997256223e-20 3.5930355597577905e-06  0.
-3.0996280477050623e-18 3.5930355597572327e-06  0.
-8.373160248365927e-17 3.593035559740936e-06  0.
-1.9532539395081523e-15 3.593035559328981e-06  0.
-3.881321943465935e-14 3.593035550394421e-06  0.
-6.471134630894322e-13 3.5930353863573945e-06  0.
-8.888039152906094e-12 3.5930328797431974e-06  0.
-9.83311991633472e-11 3.5930016230506003e-06  0.
-8.520607755651142e-10 3.5926919305018582e-06  0.
-5.589076814154123e-09 3.5903277421031472e-06  0.
-2.6691958157285844e-08 3.577002661525587e-06  0.
-9.026836847604863e-08 3.523771448223924e-06  0.
-2.2243615602589055e-07 3.375515760769787e-06  0.
-4.4483497526543613e-07 3.0715836663360648e-06  0.
-8.201616422203095e-07 2.7198895463432143e-06  0.
-1.8400573544306272e-06 3.201022491591395e-06  0.
0.0 6.434301497375245e-06  0.
-2.2350612911495654e-22 6.434301497375257e-06  0.
3.443265709340451e-21 6.434301497375261e-06  0.
1.7841710327869135e-21 6.434301497375258e-06  0.
5.280340167979186e-22 6.4343014973752595e-06  0.
-1.2755193856410931e-19 6.434301497375242e-06  0.
-4.17870717531576e-18 6.43430149737468e-06  0.
-1.1528932297614828e-16 6.434301497358065e-06  0.
-2.7567853534912053e-15 6.434301496927784e-06  0.
-5.638435128938463e-14 6.4343014873319196e-06  0.
-9.727078395412897e-13 6.434301305320665e-06  0.
-1.3917904272879497e-11 6.434298412046871e-06  0.
-1.6181530396229532e-10 6.434260596662179e-06  0.
-1.4903798742942935e-09 6.433862937098383e-06  0.
-1.0535887112439054e-08 6.430600458228969e-06  0.
-5.5025569711898784e-08 6.41044180966603e-06  0.
-2.0404219870308666e-07 6.32145551279841e-06  0.
-5.318446556562987e-07 6.057443295535231e-06  0.
-1.0831657380102953e-06 5.561448579923944e-06  0.
-2.0429484796058625e-06 5.188886530545129e-06  0.
-3.679990496075344e-06 6.2864832684179715e-06  0.
0.0 8.690091760756679e-06  0.
1.117201558855569e-21 8.690091760756684e-06  0.
-1.828583382984951e-21 8.69009176075668e-06  0.
-1.752106657705599e-21 8.690091760756692e-06  0.
-1.9354099753749085e-21 8.69009176075669e-06  0.
-1.649995419204973e-19 8.690091760756672e-06  0.
-5.156213298300917e-18 8.690091760756215e-06  0.
-1.4447608457291514e-16 8.690091760742428e-06  0.
-3.5140446917789075e-15 8.690091760379627e-06  0.
-7.331796037423337e-14 8.690091752134461e-06  0.
-1.2948385122581386e-12 8.69009159218527e-06  0.
-1.90524860795938e-11 8.690088981866695e-06  0.
-2.2912865392007928e-10 8.690053725091541e-06  0.
-2.1996664902847247e-09 8.689668159836201e-06  0.
-1.6368614853825498e-08 8.686336427956444e-06  0.
-9.104709260940349e-08 8.66441429706297e-06  0.
-3.629115142842505e-07 8.559694073772445e-06  0.
-1.0038698070567735e-06 8.228997273778132e-06  0.
-2.025875220698167e-06 7.693307394554114e-06  0.
-3.608837720009281e-06 7.726597611985706e-06  0.
-5.14589178284162e-06 9.096397849955787e-06  0.
0.0 1.1041135460022854e-05  0.
2.0812166929149592e-21 1.1041135460022856e-05  0.
8.132191465511584e-23 1.1041135460022856e-05  0.
1.632516717514023e-21 1.104113546002285e-05  0.
-1.5306165298797111e-22 1.1041135460022846e-05  0.
-1.8377211491122776e-19 1.1041135460022836e-05  0.
-5.847672754089594e-18 1.104113546002258e-05  0.
-1.6527626965249615e-16 1.1041135460014714e-05  0.
-4.060674674474377e-15 1.1041135459805677e-05  0.
-8.571943579062634e-14 1.1041135455001799e-05  0.
-1.5347991304774313e-12 1.1041135360612267e-05  0.
-2.2955156036074625e-11 1.1041133795716283e-05  0.
-2.8156593655194973e-10 1.1041112270336799e-05  0.
-2.769233294031082e-09 1.1040871108156638e-05  0.
-2.124086429146178e-08 1.1038726692432166e-05  0.
-1.2276626770690965e-07 1.1024028226042514e-05  0.
-5.13490037364757e-07 1.0950324788913004e-05  0.
-1.4922991610519874e-06 1.070784723854337e-05  0.
-2.977416153020886e-06 1.0353550410656686e-05  0.
-4.497424981090339e-06 1.0715078948373675e-05  0.
-5.838041178478051e-06 1.1563982339830112e-05  0.
0.0 1.3450000000000036e-05  0.
-3.9073354076078584e-21 1.3450000000000036e-05  0.
4.365244972215817e-21 1.3450000000000036e-05  0.
-3.163009051688671e-21 1.3450000000000036e-05  0.
3.870824258695024e-21 1.3450000000000036e-05  0.
-1.9302812226302751e-19 1.3450000000000036e-05  0.
-6.1004136554623615e-18 1.3450000000000036e-05  0.
-1.7283169104981218e-16 1.3450000000000036e-05  0.
-4.260494048352702e-15 1.3450000000000036e-05  0.
-9.028525990622595e-14 1.3450000000000036e-05  0.
-1.6238654494872597e-12 1.3450000000000036e-05  0.
-2.441833108551458e-11 1.3450000000000036e-05  0.
-3.01454073958975e-10 1.3450000000000036e-05  0.
-2.9886431413078537e-09 1.3450000000000036e-05  0.
-2.3153326433097637e-08 1.3450000000000036e-05  0.
-1.355850718473285e-07 1.3450000000000036e-05  0.
-5.76879596135371e-07 1.3450000000000036e-05  0.
-1.7092636179968974e-06 1.3450000000000036e-05  0.
-3.396229507271267e-06 1.3450000000000036e-05  0.
-4.6142484028486015e-06 1.3450000000000036e-05  0.
-6.05696953241135e-06 1.3450000000000036e-05  0.
</DataArray>
<DataArray type="Float64" Name="sigma_xx" NumberOfComponents="1" format="ascii" >
0.0 
0.0 
0.0 
0.0 
0.0 
0.0 
0.0 
0.0 
0.0 
0.0 
0.0 
0.0 
0.0 
0.0 
0.0 
0.0 
0.0 
0.0 
0.0 
0.0 
0.0 
0.0 
0.0 
0.0 
0.0 
0.0 
0.0 
0.0 
0.0 
0.0 
0.0 
0.0 
0.0 
0.0 
0.0 
0.0 
0.0 
0.0 
0.0 
0.0 
0.0 
0.0 
0.0 
0.0 
0.0 
0.0 
0.0 
0.0 
0.0 
0.0 
0.0 
0.0 
0.0 
0.0 
0.0 
0.0 
0.0 
0.0 
0.0 
0.0 
0.0 
0.0 
0.0 
1.8651746813702624e-06 
1.8651746813702624e-06 
1.8651746813702624e-06 
1.8651746813702624e-06 
1.8651746813702624e-06 
1.8651746813702624e-06 
1.8651746813702624e-06 
1.8651746813702624e-06 
1.8651746813702624e-06 
1.8651746813702624e-06 
1.8651746813702624e-06 
1.8651746813702624e-06 
1.8651746813702624e-06 
1.8651746813702624e-06 
1.8651746813702624e-06 
1.8651746813702624e-06 
1.7152945730458664e-06 
1.5598633495983445e-06 
1.4765966227514578e-06 
1.1046719095020303e-06 
8.104628079763639e-07 
6.590283874174927e-05 
6.590283874174927e-05 
6.590283874174927e-05 
6.590283874174927e-05 
6.590283874174927e-05 
6.590283874174927e-05 
6.590283874174927e-05 
6.590283874174927e-05 
6.590283874174927e-05 
6.590283874174927e-05 
6.58251231300255e-05 
6.559752740997735e-05 
6.52200515816048e-05 
6.452616219121407e-05 
6.29829521869851e-05 
6.059597268404102e-05 
5.6815663285192366e-05 
5.1231241471327835e-05 
4.362621375264551e-05 
3.103628465339624e-05 
2.293720768875572e-05 
0.0018148149649732652 
0.0018148149649732652 
0.0018148149649732652 
0.0018148149649732652 
0.0018148149649732652 
0.0018148149649732652 
0.0018148149649732652 
0.0018148149649732652 
0.0018147428004766646 
0.0018143708757634152 
0.0018127832568382012 
0.0018087531472588119 
0.001799449478312453 
0.0017796986107043715 
0.0017427226328692307 
0.00167873492884496 
0.0015762280369813193 
0.0014249434965307724 
0.001215388900632774 
0.0008711198429267593 
0.0006474265568101596 
0.04319278268383185 
0.04319278268383185 
0.04319278268383185 
0.04319278268383185 
0.04319278268383185 
0.04319278268383185 
0.04319278268383185 
0.043192488474730326 
0.04319070101566068 
0.04318306268125126 
0.04315700019574818 
0.04308324252910721 
0.04290012789454066 
0.04249633422936937 
0.041700010111611605 
0.04027326805378094 
0.037934988483812035 
0.03440773221896619 
0.029435026638324747 
0.02111933405934962 
0.01568243312988215 
0.8810022045224738 
0.8810022045224738 
0.8810022045224738 
0.8810022045224738 
0.8810022045224738 
0.8810022045224738 
0.8810020546423655 
0.8809995455383298 
0.8809815377208704 
0.8808926421632887 
0.8805437545778002 
0.879438533107901 
0.8764576620023942 
0.8694855557767053 
0.8550181618272032 
0.828084245618754 
0.7825753933765609 
0.7122595069297686 
0.6111417427678842 
0.43874706090463156 
0.32537577077107455 
15.199857461567484 
15.199857461567483 
15.199857461567483 
15.199857461567483 
15.199857461567483 
15.199857461567483 
15.199856728820286 
15.199844760616081 
15.199730246662206 
15.198942282523824 
15.195292085712346 
15.181951368292694 
15.142463810624555 
15.042701395628905 
14.823884408876603 
14.397744707572707 
13.652965635824184 
12.470928822949642 
10.733606964352656 
7.707800964151797 
5.704086303293106 
218.35010288739903 
218.35010288739903 
218.35010288739903 
218.35010288739903 
218.35010288739903 
218.35010281523455 
218.35009982318348 
218.35005367676348 
218.3495135477109 
218.34479396742876 
218.31554247730972 
218.19117332344535 
217.77100452924353 
216.61630643654553 
213.90049617653332 
208.34691510929198 
198.25265050454894 
181.76335534747506 
156.9333595491384 
112.65447844577275 
83.1389221411793 
2562.261160021783 
2562.261160021783 
2562.261160021783 
2562.261160021783 
2562.261160021783 
2562.261159583245 
2562.2611504017004 
2562.2610010711524 
2562.2589911067353 
2562.238044212516 
2562.076077594621 
2561.184943250527 
2557.738156894195 
2547.0695720702915 
2520.0636100675124 
2461.384854401948 
2350.2760202770414 
2162.792233589838 
1873.0273484479635 
1342.800909864827 
986.3215664873687 
23989.415105818418 
23989.415105896132 
23989.415105973847 
23989.415105973847 
23989.415105973847 
23989.415104880278 
23989.41508220952 
23989.414671393693 
23989.408512270486 
23989.335191176844 
23988.665144369916 
23984.144908795184 
23962.360413370956 
23886.55644395553 
23674.069150064748 
23183.593500095125 
22208.334891923856 
20509.648188313236 
17808.763798379805 
12728.959990840332 
9290.686907748031 
173961.3045278698 
173961.3045279475 
173961.30452802524 
173961.30452802524 
173961.30452802524 
173961.3045259269 
173961.30447633323 
173961.30349501822 
173961.2874826601 
173961.07620471495 
173958.8838800043 
173941.59139896274 
173841.56620888482 
173426.27726824593 
172145.16548028353 
168942.8480210558 
162290.25616099063 
150302.8149906937 
130730.29756306138 
92888.12078367954 
67031.84634413436 
940199.818016629 
940199.818016629 
940199.818016629 
940199.818016629 
940199.8180166346 
940199.8180127377 
940199.8179138224 
940199.8158474697 
940199.7797903457 
940199.2639952501 
940193.3604720576 
940140.8739645758 
939790.7100588239 
938092.957150707 
932149.4872119554 
916226.503866757 
881486.5001883107 
817477.0360822006 
710541.383958793 
499117.6483900903 
353985.93741471897 
3597725.7384073967 
3597725.7384073967 
3597725.7384073967 
3597725.7384073967 
3597725.738407258 
3597725.738400325 
3597725.738222684 
3597725.734347294 
3597725.663001676 
3597724.5753653618 
3597711.1392055238 
3597580.169381738 
3596604.5956328646 
3591247.306256941 
3570140.6581294555 
3509640.647986369 
3373164.3385728 
3120019.6055128714 
2695008.8935149875 
1850587.512246229 
1270614.7880271573 
9113262.023351539 
9113262.023351539 
9113262.023351539 
9113262.023351539 
9113262.02335125 
9113262.023340054 
9113262.023052057 
9113262.016531695 
9113261.891296055 
9113259.884641752 
9113233.585311616 
9112958.431930423 
9110728.760420058 
9097232.919408266 
9038540.149682939 
8858948.421046343 
8454906.186380602 
7719049.494874539 
6528261.330774607 
4263612.659359767 
2725521.82507884 
14281554.385472246 
14281554.385472246 
14281554.385472246 
14281554.385472246 
14281554.385471884 
14281554.38545593 
14281554.38503101 
14281554.375134582 
14281554.178732753 
14281550.909066256 
14281506.078394849 
14281011.22474531 
14276737.396701215 
14248880.761111358 
14117747.713391129 
13691673.402507704 
12746151.442486979 
11158273.011525027 
8801087.88337323 
5032384.736155757 
2659533.069709988 
14308609.231950514 
14308609.231950516 
14308609.231950516 
14308609.231950516 
14308609.231949937 
14308609.231929086 
14308609.23135667 
14308609.217736902 
14308608.940772232 
14308604.197105706 
14308536.952511467 
14307764.843804576 
14300777.363211831 
14252665.027399952 
14012021.0748598 
13187795.044081438 
11365078.630664159 
8685459.466232615 
5325990.021907523 
1819837.8161385618 
190836.02634094888 
12928859.884740192 
12928859.884740114 
12928859.884740036 
12928859.884740036 
12928859.884739248 
12928859.88471394 
12928859.884007562 
12928859.8669422 
12928859.513981039 
12928853.34877903 
12928763.921850294 
12927708.900692945 
12917849.175572775 
12847331.333749158 
12478988.336064983 
11162787.740504246 
8225276.145377761 
4478006.119007854 
1245800.7710326153 
-344552.4146045398 
-521945.82094285055 
13359467.167455215 
13359467.167455137 
13359467.167455059 
13359467.167455059 
13359467.167454055 
13359467.167425582 
13359467.166624796 
13359467.14710611 
13359466.739347491 
13359459.5342839 
13359353.605238885 
13358083.90321096 
13345991.979999796 
13257549.879355302 
12783292.245723162 
11040583.697879808 
7097982.142724341 
2585498.4175631255 
813373.9736354754 
206384.91649341298 
-544333.5474045374 
13522136.142755233 
13522136.142755233 
13522136.142755233 
13522136.142755233 
13522136.142754078 
13522136.14272438 
13522136.141889414 
13522136.121480305 
13522135.69370801 
13522128.106139624 
13522016.057312194 
13520665.947958779 
13507728.331331188 
13412393.988223415 
12896669.963127058 
10982851.950204093 
6625229.364153864 
1838799.3826486566 
1043242.7677499494 
338273.2200561593 
-1481683.062425445 
</DataArray>
<DataArray type="Float64" Name="sigma_yy" NumberOfComponents="1" format="ascii" >
0.0 
0.0 