<?xml version="1.0"?>
<VTKFile type="UnstructuredGrid" version="0.1" byte_order="LittleEndian" compressor="vtkZLibDataCompressor">
<UnstructuredGrid>
<Piece NumberOfPoints="441" NumberOfCells="400">
<PointData>
<DataArray type="Float64" Name="displacement" NumberOfComponents="3" format="ascii" >
0.0 2.9888677955451267e-73  0.
-1.2268580810286169e-72 -1.5254485381007792e-72  0.
-2.4476631676673284e-71 -2.1720494921104823e-71  0.
-3.713752906115997e-70 -3.2515238513213535e-70  0.
-3.096058779998317e-69 -2.3994274997465525e-69  0.
-1.6484383438094217e-68 -1.098855133126385e-68  0.
-6.835086032016649e-68 -4.08770779634902e-68  0.
-2.2709423454255506e-67 -1.1786445779934373e-67  0.
-6.417460690993142e-67 -2.9678430608063605e-67  0.
-1.5626364129420972e-66 -6.241015037371605e-67  0.
-3.35945828993167e-66 -1.1727157281661767e-66  0.
-6.419684502365019e-66 -1.887507029554387e-66  0.
-1.1022498799844501e-65 -2.7153088103609334e-66  0.
-1.7045760085314228e-65 -3.307963546887879e-66  0.
-2.380884022800181e-65 -3.4551072361394556e-66  0.
-2.9947093479977605e-65 -2.6833885508324945e-66  0.
-3.3685977676485026e-65 -1.0536555917100866e-66  0.
-3.3294819137194947e-65 1.4288803843133777e-66  0.
-2.786977177854796e-65 4.1339710230113897e-66  0.
-1.6746416413662847e-65 5.780110590431057e-66  0.
-9.601207318948433e-66 1.2052096138384844e-65  0.
0.0 -1.398437213677731e-69  0.
-9.067013839807758e-69 -7.669795021405175e-69  0.
-4.675797070455039e-68 -3.0044431531391174e-68  0.
-3.445300476612991e-67 -2.6807450335445777e-67  0.
-4.4933399193301394e-66 -3.8834600265220945e-66  0.
-3.6096186874435446e-65 -2.7732775032977365e-65  0.
-1.8447187099217663e-64 -1.2069477568225333e-64  0.
-7.360464594772363e-64 -4.310385496791152e-64  0.
-2.3431370287070946e-63 -1.1764667081656271e-63  0.
-6.339312924073347e-63 -2.8206298867933043e-63  0.
-1.4726180032163892e-62 -5.568034728082784e-63  0.
-3.0125052425311583e-62 -9.83389609406105e-63  0.
-5.454223531282214e-62 -1.4587891777035332e-62  0.
-8.83066966740668e-62 -1.9182605892283466e-62  0.
-1.2791720756897358e-61 -2.0434505871009377e-62  0.
-1.6584733757778448e-61 -1.7503153076085606e-62  0.
-1.910358570399588e-61 -7.677552736027857e-63  0.
-1.9224454409492538e-61 6.372254336089622e-63  0.
-1.6308165958454472e-61 2.3627292356479002e-62  0.
-9.86016343751626e-62 3.3666473856183884e-62  0.
-5.680381694047814e-62 7.140474453832252e-62  0.
0.0 -1.4235688327866086e-64  0.
-1.2859914262199236e-64 1.3739489912074981e-65  0.
-2.1827903783201392e-64 -1.0349450623949297e-64  0.
-9.340082592846066e-64 -6.128309208063932e-64  0.
-7.052138120444893e-63 -5.51359905677147e-63  0.
-8.687656629246718e-62 -7.437404824349933e-62  0.
-6.676930459334765e-61 -5.0673923728553024e-61  0.
-3.2678134537138364e-60 -2.094484432609094e-60  0.
-1.2557238472632053e-59 -7.19815561561879e-60  0.
-3.8372918953838574e-59 -1.8625515474089254e-59  0.
-9.96181370435893e-59 -4.263648960554207e-59  0.
-2.2110544468280468e-58 -7.888158403710904e-59  0.
-4.306162352149387e-58 -1.3067810784377285e-58  0.
-7.377893902104451e-58 -1.7656266689510245e-58  0.
-1.1223809831083198e-57 -2.0810638710541425e-58  0.
-1.5122671033154415e-57 -1.8187089535030516e-58  0.
-1.7971745488322842e-57 -1.0296416526277016e-58  0.
-1.8521419487072542e-57 4.69855469225188e-59  0.
-1.5969897279561055e-57 2.166726309437815e-58  0.
-9.756878478685656e-58 3.3232246329132644e-58  0.
-5.6142479085373896e-58 7.084504222273382e-58  0.
0.0 2.572101899600343e-60  0.
1.745381299935392e-60 -8.270223992196574e-61  0.
2.740036347333219e-60 1.8216106750653377e-60  0.
3.272355260063734e-60 -1.290856682942924e-60  0.
-9.869309395286595e-60 -1.1862942615263178e-59  0.
-1.214330226045074e-58 -9.986055143640296e-59  0.
-1.386109822998148e-57 -1.1659781524735135e-57  0.
-1.003525201627166e-56 -7.488365186490097e-57  0.
-4.722922657546194e-56 -2.9724194605035575e-56  0.
-1.7613553443075965e-55 -9.923372581245226e-56  0.
-5.208704668125599e-55 -2.456238568283347e-55  0.
-1.306693553250746e-54 -5.404417301368925e-55  0.
-2.7843743768147817e-54 -9.376592199492917e-55  0.
-5.1735124853118316e-54 -1.4520937106637334e-54  0.
-8.376734156387081e-54 -1.7518777743429096e-54  0.
-1.1903223683429249e-53 -1.7755522799767062e-54  0.
-1.4736926816093828e-53 -1.057509009424355e-54  0.
-1.5670083831081347e-53 1.1479612702035621e-55  0.
-1.3828626726558348e-53 1.8045033016848265e-54  0.
-8.534619764628313e-54 2.8452914851394835e-54  0.
-4.9567513949640356e-54 6.267779329891046e-54  0.
0.0 6.815520997093616e-57  0.
7.012793159698478e-56 6.331279319021436e-56  0.
1.2163163965408132e-55 -1.1799340841725202e-56  0.
1.3058537698741912e-55 2.074522841942168e-56  0.
1.1859885652922743e-55 -3.2750959835400222e-56  0.
-1.2607036284790054e-55 -2.1214575652019503e-55  0.
-1.9003420964471455e-54 -1.5646546256504949e-54  0.
-1.8643462211862447e-53 -1.519576893448538e-53  0.
-1.2575198203049304e-52 -9.198717087124826e-53  0.
-5.78032582923062e-52 -3.6055111180247034e-52  0.
-2.121478000898853e-51 -1.183585284601249e-51  0.
-6.13996166670511e-51 -2.8364640210970244e-51  0.
-1.4977033227157638e-50 -6.00357926963364e-51  0.
-3.0687240893550303e-50 -9.711403390721021e-51  0.
-5.420048250942933e-50 -1.3808035147572422e-50  0.
-8.219382585832904e-50 -1.419404909231919e-50  0.
-1.0733654020572486e-49 -1.094291655521781e-50  0.
-1.1872276225410523e-49 -5.279102392050721e-52  0.
-1.076145859472755e-49 1.228113723648664e-50  0.
-6.757477885781407e-50 2.250942850311381e-50  0.
-3.9080931135798846e-50 4.977369039455163e-50  0.
0.0 1.0885321082287522e-51  0.
1.1161973101022553e-51 2.7680915462785095e-53  0.
1.7766091004529768e-51 6.331392660923352e-52  0.
2.0074677877689312e-51 -4.0260122882567415e-52  0.
1.6015715225698336e-51 -3.0647526727051695e-54  0.
1.1398595122561793e-51 -4.592761409512e-52  0.
-2.3514401762310603e-51 -3.035518322725141e-51  0.
-2.5989746018607524e-50 -2.0636304419662567e-50  0.
-2.136068524037338e-49 -1.6719513931829135e-49  0.
-1.3517122404417983e-48 -9.7181439648612e-49  0.
-6.207462567187823e-48 -3.8870322418344757e-48  0.
-2.2614345036925945e-47 -1.2527826329168083e-47  0.
-6.418027586571276e-47 -2.905601741923384e-47  0.
-1.512223988559001e-46 -5.80171930030921e-47  0.
-2.9456074049107693e-46 -8.53666187126145e-47  0.
-4.859836528069391e-46 -1.0612801889640152e-46  0.
-6.74310712034923e-46 -8.214816234055419e-47  0.
-7.810686536356591e-46 -2.5285991015426626e-47  0.
-7.31846268800662e-46 7.9291426178949e-47  0.
-4.656785666330467e-46 1.4978760274218176e-46  0.
-2.733791109660023e-46 3.4900034450325465e-46  0.
0.0 4.177754013981709e-49  0.
1.0102366849009925e-47 9.683511586610152e-48  0.
1.712041791017974e-47 -2.656195369010176e-48  0.
1.6949251992250497e-47 2.477078020347834e-48  0.
1.4290092864348024e-47 -5.1311745653775037e-48  0.
8.121738479031805e-48 -1.0409969690774493e-48  0.
4.3382194693949563e-48 -2.7485044599718236e-48  0.
-3.3121068214313755e-47 -3.475833090780923e-47  0.
-2.951988111282536e-46 -2.276950038019669e-46  0.
-2.1071849047117878e-45 -1.5865658658543412e-45  0.
-1.2796402560632786e-44 -9.112385828741149e-45  0.
-5.919180429034207e-44 -3.7315515843956575e-44  0.
-2.1133494902655427e-43 -1.1491315039161703e-43  0.
-5.7834228876523604e-43 -2.5226074423790506e-43  0.
-1.2868694360522881e-42 -4.565549314065847e-43  0.
-2.3251369300081338e-42 -5.822007754869871e-43  0.
-3.4774044600793265e-42 -5.696815650175678e-43  0.
-4.2411635616851674e-42 -1.9888191440279017e-43  0.
-4.11499231662087e-42 3.5487091389730642e-43  0.
-2.6747493390413864e-42 8.641513319362874e-43  0.
-1.5566510847642116e-42 2.007493926754345e-42  0.
0.0 7.941113200734644e-44  0.
6.818564388190919e-44 -1.1266415359113387e-44  0.
9.98790686692906e-44 4.311644909083363e-44  0.
1.0729680963310333e-43 -3.584145816072946e-44  0.
7.117418617714267e-44 -1.960426484442907e-46  0.
4.4519533107779133e-44 -2.6509577477695983e-44  0.
1.4358399309557885e-44 -3.648300723379075e-45  0.
4.8820803361079755e-45 -5.904789255575757e-45  0.
-3.280433446987318e-43 -3.275448520046475e-43  0.
-2.787251613476635e-42 -2.1352862348479585e-42  0.
-1.825233992099421e-41 -1.3351236670462747e-41  0.
-1.0785169012631848e-40 -7.634112604084665e-41  0.
-4.885296763407774e-40 -3.046488279756672e-40  0.
-1.652271231599728e-39 -8.597578848172343e-40  0.
-4.236530394215685e-39 -1.726098500776158e-39  0.
-8.649953607637661e-39 -2.6896634956235588e-39  0.
-1.4065356925254618e-38 -2.723613185519526e-39  0.
-1.8290166323007889e-38 -1.5303935159149956e-39  0.
-1.8529505072858214e-38 1.4518475291934453e-39  0.
-1.2220385113901844e-38 3.8022047123151466e-39  0.
-7.21264904424975e-39 9.34455781497045e-39  0.
0.0 -4.3403269244517986e-41  0.
2.95497103959108e-40 3.381443293778708e-40  0.
4.827071168583026e-40 -1.4887456188488766e-40  0.
4.0291281005977465e-40 6.726832191799239e-41  0.
2.992218655391818e-40 -1.7002707787103157e-40  0.
1.1069479040322272e-40 -1.8896541212130818e-41  0.
4.5117780277168183e-41 -4.667336518960106e-41  0.
-7.59019196864277e-43 7.717595456659212e-43  0.
-2.9805398032226774e-42 -3.6596937057992906e-42  0.
-2.5322091605781445e-39 -2.530499153372174e-39  0.
-2.2692774475055328e-38 -1.7660556455959482e-38  0.
-1.4126216779548293e-37 -1.010899560516388e-37  0.
-7.934311865763608e-37 -5.5179249940150265e-37  0.
-3.36190988381676e-36 -2.01901534641856e-36  0.
-1.0380046454073287e-35 -5.0054322512397625e-36  0.
-2.442827232642123e-35 -9.049731182988145e-36  0.
-4.4919490203341355e-35 -1.1435516618372614e-35  0.
-6.379324323878903e-35 -7.59837988927524e-36  0.
-6.88218874544647e-35 3.419282823842493e-36  0.
-4.6210721169892476e-35 1.4609646618445797e-35  0.
-2.6703108962452387e-35 3.550444601106412e-35  0.
0.0 1.215487270550652e-36  0.
1.4113456866752044e-36 1.7932076677953145e-37  0.
1.845457560847155e-36 2.904329274045608e-37  0.
1.5606195437482716e-36 -6.024227353106081e-37  0.
7.340952236505428e-37 -2.1339384760353104e-37  0.
2.586186838118691e-37 -2.6468744793745764e-37  0.
-3.0518168112721606e-39 3.051370488087535e-39  0.
4.621591868630986e-41 -4.4632157218117227e-41  0.
-1.9487847870601655e-41 -2.617919992757335e-41  0.
-2.332313777987709e-38 -2.8340305029167867e-38  0.
-1.6681581341579074e-35 -1.6669934045034037e-35  0.
-1.6421946075604373e-34 -1.3115778246974242e-34  0.
-9.6089358468639e-34 -6.66690207161275e-34  0.
-4.839934514863595e-33 -3.219697498491834e-33  0.
-1.9727255335982172e-32 -1.1665113907427545e-32  0.
-5.549873675316165e-32 -2.4139930195938083e-32  0.
-1.224720189378623e-31 -4.285582440214491e-32  0.
-2.0628718706513436e-31 -4.168619902407561e-32  0.
-2.5512154471788068e-31 -1.9389184809840505e-33  0.
-1.7764232419801893e-31 5.259920136772656e-32  0.
-1.0383745941922516e-31 1.4744205686291737e-31  0.
0.0 1.1242134675444952e-32  0.
9.396400658381608e-33 -2.2689501468722236e-33  0.
8.285168163995661e-33 1.9340276858064683e-33  0.
6.336612237711653e-33 -4.3275417056288565e-33  0.
9.458164703478665e-34 -9.66882149479452e-34  0.
-8.698453268031126e-36 8.384605430391849e-36  0.
1.1176552093407117e-37 -1.0548107848871008e-37  0.
5.649802009425513e-41 -1.4434168738749181e-40  0.
-6.672184045728348e-41 -1.1542874582139041e-40  0.
-1.5462447676042164e-37 -2.061297780881432e-37  0.
-1.6266544886721257e-34 -1.956593802230369e-34  0.
-1.0290382912864589e-31 -1.028483882578583e-31  0.
-1.0268281904039138e-30 -8.19848762941457e-31  0.
-5.377520733462407e-30 -3.539817915730297e-30  0.
-2.2969608298159783e-29 -1.4028166025460524e-29  0.
-1.0512563243199981e-28 -6.938318210103897e-29  0.
-2.932948465912742e-28 -1.2065407409752107e-28  0.
-6.265511093932525e-28 -2.124913014982089e-28  0.
-9.914860562570208e-28 -1.272161556176099e-28  0.
-8.329054192487657e-28 1.1531846814135367e-28  0.
-6.684402748640127e-28 8.658342442620755e-28  0.
0.0 -1.5848371625916938e-29  0.
4.5758018019451723e-29 5.437199661616059e-29  0.
4.4824661968374663e-29 -4.437874717823782e-29  0.
2.073843546104695e-30 -2.0841912401186574e-30  0.
-1.67580254907284e-32 1.5306411117942043e-32  0.
1.961946896085715e-34 -1.7848744377856784e-34  0.
9.926134599205747e-38 -3.056674256236719e-37  0.
5.794585647093575e-39 -4.3154551164298315e-39  0.
2.8501685668753508e-39 7.278760214744118e-40  0.
-4.67371648432759e-37 -8.320492850683685e-37  0.
-9.910317250444338e-34 -1.347411265601937e-33  0.
-9.7016855256175e-31 -1.1750295078100258e-30  0.
-5.807296410669503e-28 -5.807308061313705e-28  0.
-4.95941471426972e-27 -3.899674283343484e-27  0.
-2.6496114965857656e-26 -1.799933869983884e-26  0.
-1.1693018644716355e-25 -6.489295047244113e-26  0.
-5.154798862287229e-25 -2.987390482571638e-25  0.
-1.4465159043446278e-24 -4.596185363222632e-25  0.
-2.5775782068074465e-24 -4.62853375043809e-25  0.
-2.977209880051252e-24 -4.381407150314801e-25  0.
-4.036978647277968e-24 3.493451090588441e-24  0.
0.0 2.6197793352193287e-20  0.
1.995225130023348e-25 2.6197403099429878e-20  0.
2.1938872718324175e-27 2.6197529055719588e-20  0.
-2.091629535319658e-29 2.6197531555650576e-20  0.
2.376869346287093e-31 2.619753153884766e-20  0.
1.1135713270733892e-34 2.619753153905373e-20  0.
1.3720932523931832e-35 2.6197531539054184e-20  0.
4.8830461613859e-36 2.6197531539054196e-20  0.
4.5524419692067025e-36 2.619753153905419e-20  0.
3.395952722563869e-36 2.6197531539054193e-20  0.
-2.7426613275085968e-33 2.6197531539049108e-20  0.
-4.225324821879071e-30 2.6197531532665396e-20  0.
-4.524812688017832e-27 2.6197525940885368e-20  0.
-2.4643835564768607e-24 2.6195087864513034e-20  0.
-4.423583107233397e-23 2.6109713741588994e-20  0.
-1.5788423086993355e-22 2.5992199084228964e-20  0.
-3.5313363549491202e-22 2.5352256673419054e-20  0.
-1.1089283599920573e-21 2.4208677777013627e-20  0.
-1.8220390188517807e-21 2.0979889175885183e-20  0.
-2.449143358627339e-21 1.6871909049577665e-20  0.
-8.99705876051671e-21 1.7627199734623383e-20  0.
0.0 6.017530285200886e-18  0.
9.3868962511033e-25 6.017862906540563e-18  0.
-1.324218586176865e-26 6.017864089280969e-18  0.
1.9040318508969239e-28 6.017864078062125e-18  0.
7.919314088672343e-32 6.017864078207174e-18  0.
1.7740101298117361e-32 6.0178640782076355e-18  0.
4.831242075665631e-34 6.017864078207652e-18  0.
5.136582239598834e-34 6.017864078207653e-18  0.
1.3174545297780976e-34 6.017864078207651e-18  0.
4.7633427446476534e-34 6.017864078207652e-18  0.
-8.525275270363084e-33 6.017864078207636e-18  0.
-1.5042857428711012e-29 6.0178640781819305e-18  0.
-4.7838237614024396e-27 6.0178640646114275e-18  0.
-1.3599039365343377e-23 6.017843571869975e-18  0.
-6.4872474654629204e-21 6.0112935608688486e-18  0.
-2.6634367156877663e-20 5.97850176127767e-18  0.
-8.557849311794461e-20 5.868501247914997e-18  0.
-1.9044965118720931e-19 5.593602537761267e-18  0.
-3.585390787072274e-19 5.0522040581864385e-18  0.
-5.721657392681703e-19 4.182996756990502e-18  0.
-2.2039127641086854e-18 4.3221573880972125e-18  0.
0.0 1.0061286468875468e-15  0.
-5.2981245287778175e-24 1.0061284251736594e-15  0.
7.770201845524673e-26 1.0061284242705326e-15  0.
2.4598798077119303e-29 1.00612842433942e-15  0.
2.2705437987303927e-29 1.0061284243397484e-15  0.
1.9522484080841872e-31 1.006128424339771e-15  0.
1.8639249471942041e-31 1.0061284243397715e-15  0.
1.9060039741232842e-31 1.0061284243397717e-15  0.
1.953111007512523e-31 1.0061284243397715e-15  0.
1.6508030128707034e-31 1.0061284243397717e-15  0.
1.4842433939395278e-31 1.0061284243397715e-15  0.
-6.831742884675844e-29 1.0061284243396634e-15  0.
-1.0983839704736702e-25 1.0061284242196234e-15  0.
-1.9249196317896834e-23 1.0061283427130863e-15  0.
-4.615802288118653e-20 1.006096272242009e-15  0.
-2.7990729551575263e-18 1.0033151756558822e-15  0.
-9.710749387793269e-18 9.91029405111556e-16  0.
-2.862580503890794e-17 9.532491817619204e-16  0.
-5.569350744379753e-17 8.701909876948924e-16  0.
-9.845343697193934e-17 7.273760285267447e-16  0.
-3.8259807040978375e-16 7.543846137772366e-16  0.
0.0 1.2500756047363918e-13  0.
2.3461573755471414e-23 1.2500756074534474e-13  0.
4.962655703983413e-26 1.2500756074795805e-13  0.
1.7466283369338708e-26 1.2500756074804347e-13  0.
7.643852936664309e-30 1.2500756074806094e-13  0.
1.832386549962887e-30 1.25007560748061e-13  0.
1.3754174326335996e-30 1.25007560748061e-13  0.
4.127154202812385e-30 1.25007560748061e-13  0.
-4.570511333296869e-30 1.25007560748061e-13  0.
5.358841566340481e-30 1.2500756074806102e-13  0.
-4.5490353612218106e-30 1.25007560748061e-13  0.
-1.146571321664526e-28 1.250075607480607e-13  0.
-4.251249311717844e-25 1.2500756074733693e-13  0.
-6.2392197613507925e-22 1.250075601701182e-13  0.
-1.7597817414032084e-19 1.250074614933606e-13  0.
-1.7927764124584593e-17 1.2499498560425128e-13  0.
-8.753511303379524e-16 1.241265046866616e-13  0.
-2.5995240413068622e-15 1.2072811651657242e-13  0.
-6.800546071744417e-15 1.1151912082127306e-13  0.
-1.2027286130990206e-14 9.426361137252378e-14  0.
-5.015970846276307e-14 9.859636627207751e-14  0.
0.0 1.1033270726616406e-11  0.
-1.6488937129920866e-23 1.103327072821719e-11  0.
6.295710458480238e-24 1.1033270728242297e-11  0.
-5.641707076315608e-27 1.1033270728249159e-11  0.
1.1341616482350745e-27 1.1033270728249182e-11  0.
1.0742544155818576e-27 1.1033270728249182e-11  0.
1.1077089427533963e-27 1.1033270728249185e-11  0.
1.0587579522605429e-27 1.1033270728249186e-11  0.
5.797459352298251e-28 1.1033270728249185e-11  0.
1.4486336938262363e-27 1.1033270728249185e-11  0.
6.91870747165165e-28 1.1033270728249185e-11  0.
1.1539935278024634e-27 1.1033270728249185e-11  0.
-2.3200968863054646e-25 1.1033270728247574e-11  0.
-2.333860289728658e-21 1.1033270726875225e-11  0.
-4.72068173865741e-19 1.1033270527911873e-11  0.
-6.211275170241916e-17 1.1033238526892779e-11  0.
-5.1549314691876966e-15 1.1029783406285955e-11  0.
-1.9454377002443857e-13 1.0836984644601213e-11  0.
-4.812377874069501e-13 1.018194004314531e-11  0.
-1.1401335709504147e-12 8.719640085113997e-12  0.
-4.58688011811191e-12 9.142052147866787e-12  0.
0.0 6.475302744285006e-10  0.
8.125744828001911e-22 6.475302744291625e-10  0.
-5.85156421267996e-23 6.475302744296897e-10  0.
1.8517286611334925e-25 6.475302744296599e-10  0.
2.1925980431217455e-25 6.475302744296599e-10  0.
2.3654151772804827e-25 6.475302744296599e-10  0.
2.149838703853877e-25 6.475302744296598e-10  0.
2.1429230428536657e-25 6.4753027442966e-10  0.
1.8624582993810574e-25 6.475302744296597e-10  0.
2.1247912192696657e-25 6.475302744296599e-10  0.
2.1963200454032895e-25 6.475302744296599e-10  0.
2.0605135645984528e-25 6.4753027442966e-10  0.
4.288937792978013e-25 6.475302744296582e-10  0.
-4.3635360161392285e-21 6.475302744287078e-10  0.
-9.656698285096008e-19 6.475302741336041e-10  0.
-1.4880198853996683e-16 6.475302189542585e-10  0.
-1.5900540560437715e-14 6.475228451993212e-10  0.
-1.0445203951761483e-12 6.468557523590744e-10  0.
-2.8794402334520318e-11 6.184597628772905e-10  0.
-6.034405462635262e-11 5.399380317174738e-10  0.
-2.950953178843431e-10 5.718686076335374e-10  0.
0.0 2.2764429343485908e-08  0.
8.751078444990594e-22 2.2764429343482424e-08  0.
-5.872191038747052e-23 2.2764429343481858e-08  0.
-3.336919909392268e-25 2.2764429343481885e-08  0.
1.6036308602224861e-25 2.276442934348188e-08  0.
-6.6238681206698445e-25 2.2764429343481885e-08  0.
-3.881897138003174e-25 2.2764429343481885e-08  0.
-1.0052568021698667e-24 2.276442934348189e-08  0.
-9.965697734824376e-25 2.2764429343481885e-08  0.
1.3113203333649817e-24 2.2764429343481885e-08  0.
-1.0249387706431848e-24 2.2764429343481885e-08  0.
8.156104176724736e-25 2.2764429343481885e-08  0.
1.0995219674046107e-24 2.2764429343481885e-08  0.
-6.727890170747131e-21 2.2764429343481008e-08  0.
-1.5762482160474893e-18 2.2764429343162044e-08  0.
-2.675928567808116e-16 2.276442927900829e-08  0.
-3.3191624033173664e-14 2.2764419277453794e-08  0.
-2.8049017551090747e-12 2.2763320261212093e-08  0.
-1.402291062755616e-10 2.2680870691814234e-08  0.
-2.6676105863503972e-09 2.0297709166535565e-08  0.
-1.0316839922890596e-08 2.090574646902354e-08  0.
0.0 3.992240576021649e-07  0.
2.4120238952743673e-23 3.9922405760216535e-07  0.
5.2807058445901826e-24 3.9922405760216535e-07  0.
2.995743709122328e-23 3.992240576021654e-07  0.
-3.70342039014995e-23 3.9922405760216557e-07  0.
-1.9799661443533516e-24 3.9922405760216535e-07  0.
-9.632332280068844e-24 3.9922405760216535e-07  0.
-2.8708314903651755e-24 3.992240576021654e-07  0.
-2.3535086111529494e-23 3.9922405760216535e-07  0.
1.68261296585879e-23 3.9922405760216535e-07  0.
-2.661848332788674e-23 3.9922405760216535e-07  0.
1.158841463498488e-23 3.9922405760216535e-07  0.
-1.014822213191483e-23 3.9922405760216535e-07  0.
-8.576300976582216e-21 3.992240576021646e-07  0.
-2.101541040609989e-18 3.9922405760195476e-07  0.
-3.7644946038206736e-16 3.9922405755697196e-07  0.
-5.0686095668192714e-14 3.9922405010991515e-07  0.
-4.903871479094714e-12 3.992230968181116e-07  0.
-3.2020271030652156e-10 3.991408217352529e-07  0.
-1.219513508891989e-08 3.94592372866773e-07  0.
-2.145728287192624e-07 3.957066041638591e-07  0.
0.0 2.4499999999999986e-06  0.
1.0308243521144832e-23 2.4499999999999986e-06  0.
-5.359522349733319e-24 2.4499999999999986e-06  0.
2.5592435733659726e-22 2.4499999999999986e-06  0.
-2.5929674840514615e-22 2.4499999999999986e-06  0.
-4.136672330542829e-24 2.4499999999999986e-06  0.
-3.2973959697156074e-23 2.4499999999999986e-06  0.
2.401276190027576e-23 2.4499999999999986e-06  0.
-6.244177910491443e-23 2.4499999999999986e-06  0.
3.233387414023606e-23 2.4499999999999986e-06  0.
-4.4208894248468705e-23 2.4499999999999986e-06  0.
5.512378602132133e-23 2.4499999999999986e-06  0.
-4.6028839003592045e-23 2.4499999999999986e-06  0.
-9.44182084524316e-21 2.4499999999999986e-06  0.
-2.3109671732175612e-18 2.4499999999999986e-06  0.
-4.212608957255002e-16 2.4499999999999986e-06  0.
-5.818278439115022e-14 2.4499999999999986e-06  0.
-5.898860297841317e-12 2.4499999999999986e-06  0.
-4.161536666022629e-10 2.4499999999999986e-06  0.
-1.915586388555464e-08 2.4499999999999986e-06  0.
-4.090069833554537e-07 2.4499999999999986e-06  0.
</DataArray>
<DataArray type="Float64" Name="sigma_xx" NumberOfComponents="1" format="ascii" >
0.0 
0.0 
0.0 
0.0 
0.0 
0.0 
0.0 
0.0 
0.0 
0.0 
0.0 
0.0 
0.0 
0.0 
0.0 
0.0 
0.0 
0.0 
0.0 
0.0 
0.0 
0.0 
0.0 
0.0 
0.0 
0.0 
0.0 
0.0 
0.0 
0.0 
0.0 
0.0 
0.0 
0.0 
0.0 
0.0 
0.0 
0.0 
0.0 
0.0 
0.0 
0.0 
0.0 
0.0 
0.0 
0.0 
0.0 
0.0 
0.0 
0.0 
0.0 
0.0 
0.0 
0.0 
0.0 
0.0 
0.0 
0.0 
0.0 
0.0 
0.0 
0.0 
0.0 
0.0 
0.0 
0.0 
0.0 
0.0 
0.0 
0.0 
0.0 
0.0 
0.0 
0.0 
0.0 
0.0 
0.0 
0.0 
0.0 
0.0 
0.0 
0.0 
0.0 
0.0 
0.0 
0.0 
0.0 
0.0 
0.0 
0.0 
0.0 
0.0 
0.0 
0.0 
0.0 
0.0 
0.0 
0.0 
0.0 
0.0 
0.0 
0.0 
0.0 
0.0 
0.0 
0.0 
0.0 
0.0 
0.0 
0.0 
0.0 
0.0 
0.0 
0.0 
0.0 
0.0 
0.0 
0.0 
0.0 
0.0 
0.0 
0.0 
0.0 
0.0 
0.0 
0.0 
0.0 
0.0 
0.0 
0.0 
0.0 
0.0 
0.0 
0.0 
0.0 
0.0 
0.0 
0.0 
0.0 
0.0 
0.0 
0.0 
0.0 
0.0 
0.0 
0.0 
0.0 
0.0 
0.0 
0.0 
0.0 
0.0 
0.0 
0.0 
0.0 
0.0 
0.0 
0.0 
0.0 
0.0 
0.0 
0.0 
0.0 
0.0 
0.0 
0.0 
0.0 
0.0 
0.0 
0.0 
0.0 
0.0 
0.0 
0.0 
0.0 
0.0 
0.0 
0.0 
0.0 
0.0 
0.0 
0.0 
0.0 
0.0 
0.0 
0.0 
0.0 
0.0 
0.0 
0.0 
0.0 
0.0 
0.0 
0.0 
0.0 
0.0 
0.0 
0.0 
0.0 
0.0 
0.0 
0.0 
0.0 
0.0 
0.0 
0.0 
0.0 
0.0 
0.0 
0.0 
0.0 
0.0 
0.0 
0.0 
0.0 
0.0 
0.0 
0.0 
0.0 
0.0 
0.0 
0.0 
0.0 
0.0 
0.0 
0.0 
0.0 
0.0 
0.0 
0.0 
0.0 
0.0 
0.0 
0.0 
0.0 
0.0 
0.0 
0.0 
0.0 
0.0 
0.0 
0.0 
0.0 
0.0 
0.0 
0.0 
0.0 
0.0 
0.0 
0.0 
0.0 
0.0 
1.678657213233236e-05 
1.678657213233236e-05 
1.678657213233236e-05 
1.678657213233236e-05 
1.678657213233236e-05 
1.678657213233236e-05 
1.678657213233236e-05 
1.678657213233236e-05 
1.678657213233236e-05 
1.678657213233236e-05 
1.678657213233236e-05 
1.678657213233236e-05 
1.678657213233236e-05 
1.678657213233236e-05 
1.67088565206086e-05 
1.6481260800560442e-05 
1.6031620475587254e-05 
1.526001547347277e-05 
1.3633538742396917e-05 
1.013078509970455e-05 
7.782663402622344e-06 
0.0028170354937628863 
0.0028170354937628863 
0.0028170354937628863 
0.0028170354937628863 
0.0028170354937628863 
0.0028170354937628863 
0.0028170354937628863 
0.0028170354937628863 
0.0028170354937628863 
0.0028170354937628863 
0.0028170354937628863 
0.0028170354937628863 
0.0028170354937628863 
0.0028169633292662857 
0.002811334498531436 
0.0027898017229688312 
0.002722977399116643 
0.0025769664180330656 
0.00230323538019661 
0.0017260082252334987 
0.0013273493415510975 
0.3500042256021628 
0.3500042256021628 
0.3500042256021628 
0.3500042256021628 
0.3500042256021628 
0.3500042256021628 
0.3500042256021628 
0.3500042256021628 
0.3500042256021628 
0.3500042256021628 
0.3500042256021628 
0.3500042256021628 
0.3500042256021628 
0.3500037148995715 
0.3499645462312627 
0.34820698546766937 
0.34234338142091747 
0.3261328762604875 
0.2941689281055203 
0.2218183692281882 
0.16936595459426929 
30.89034119607702 
30.89034119607702 
30.89034119607702 
30.89034119607702 
30.89034119607702 
30.89034119607702 
30.89034119607702 
30.89034119607702 
30.89034119607702 
30.89034119607702 
30.89034119607702 
30.89034119607702 
30.89034119607702 
30.890339663969247 
30.890189017807035 
30.878880269424858 
30.48852406095647 
29.382974481295665 
26.688088938797698 
20.281641344155325 
15.84372628649077 
1812.7358818009745 
1812.7358818009745 
1812.7358818009745 
1812.7358818009745 
1812.7358818009745 
1812.7358818009745 
1812.7358818009745 
1812.7358818009745 
1812.7358818009745 
1812.7358818009745 
1812.7358818009745 
1812.7358818009745 
1812.7358818009745 
1812.7358786812479 
1812.735473205595 
1812.6960291464648 
1810.3908223154879 
1752.7954477736248 
1616.7335201322512 
1231.9428085633126 
927.8848152216575 
63710.87977798948 
63710.87977798948 
63710.87977798948 
63710.87977798948 
63710.87977798948 
63710.87977798948 
63710.87977798948 
63710.87977798948 
63710.87977798948 
63710.87977798948 
63710.87977798948 
63710.87977798948 
63710.87977798948 
63710.87977264376 
63710.878939915434 
63710.78394099003 
63703.61735719141 
63394.002730754444 
58249.6506865232 
44975.682008702155 
36543.523160931225 
1116412.46734242 
1116412.46734242 
1116412.46734242 
1116412.46734242 
1116412.46734242 
1116412.46734242 
1116412.46734242 
1116412.46734242 
1116412.46734242 
1116412.46734242 
1116412.46734242 
1116412.46734242 
1116412.46734242 
1116412.4673344153 
1116412.4659712445 
1116412.2944612883 
1116397.242669989 
1115556.0305441204 
1090315.7171585627 
802352.0999741597 
538802.4656859555 
6808432.328527323 
6808432.328527323 
6808432.328527323 
6808432.328527323 
6808432.328527323 
6808432.328527323 
6808432.328527323 
6808432.328527323 
6808432.328527323 
6808432.328527323 
6808432.328527323 
6808432.328527323 
6808432.328527323 
6808432.328517098 
6808432.326698996 
6808432.085127484 
6808409.058823124 
6806937.050638473 
6750236.528478304 
5712136.71407633 
4729288.200190599 
11507897.096436622 
11507897.096436622 
11507897.096436622 
11507897.096436622 
11507897.096436622 
11507897.096436622 
11507897.096436622 
11507897.096436622 
11507897.096436622 
11507897.096436622 
11507897.096436622 
11507897.096436622 
11507897.096436622 
11507897.09642554 
11507897.094427118 
11507896.824049287 
11507870.38315127 
11506102.573561288 
11433160.249391489 
9907096.829682324 
8452234.097060503 
</DataArray>
<DataArray type="Float64" Name="sigma_yy" NumberOfComponents="1" format="ascii" >
0.0 
0.0 
0.0 
0.0 
0.0 
0.0 
0.0 
0.0 
0.0 
0.0 
0.0 
0.0 
0.0 
0.0 
0.0 
0.0 
0.0 
0.0 
0.0 
0.0 
0.0 
0.0 
0.0 
0.0 
0.0 
0.0 
0.0 
0.0 
0.0 
0.0 
0.0 
0.0 
0.0 
0.0 
0.0 
0.0 
0.0 
0.0 
0.0 
0.0 
0.0 
0.0 
0.0 
0.0 
0.0 
0.0 
0.0 
0.0 
0.0 
0.0 
0.0 
0.0 
0.0 
0.0 
0.0 
0.0 
0.0 
0.0 
0.0 
0.0 
0.0 
0.0 
0.0 
0.0 
0.0 
0.0 
0.0 
0.0 
0.0 
0.0 
0.0 
0.0 
0.0 
0.0 
0.0 
0.0 
0.0 
0.0 
0.0 
0.0 
0.0 
0.0 
0.0 
0.0 
0.0 
0.0 
0.0 
0.0 
0.0 
0.0 
0.0 
0.0 
0.0 
0.0 
0.0 
0.0 
0.0 
0.0 
0.0 
0.0 
0.0 
0.0 
0.0 
0.0 
0.0 
0.0 
0.0 
0.0 
0.0 
0.0 
0.0 
0.0 
0.0 
0.0 
0.0 
0.0 
0.0 
0.0 
0.0 
0.0 
0.0 
0.0 
0.0 
0.0 
0.0 
0.0 
0.0 
0.0 
0.0 
0.0 
0.0 
0.0 
0.0 
0.0 
0.0 
0.0 
0.0 
0.0 
0.0 
0.0 
0.0 
0.0 
0.0 
0.0 
0.0 
0.0 
0.0 
0.0 
0.0 
0.0 
0.0 
0.0 
0.0 
0.0 
0.0 
0.0 
0.0 
0.0 
0.0 
0.0 
0.0 
0.0 
0.0 
0.0 
0.0 
0.0 
0.0 
0.0 
0.0 
0.0 
0.0 
0.0 
0.0 
0.0 
0.0 
0.0 
0.0 
0.0 
0.0 
0.0 
0.0 
0.0 
0.0 
0.0 
0.0 
0.0 
0.0 
0.0 
0.0 
0.0 
0.0 
0.0 
0.0 
0.0 
0.0 
0.0 
0.0 
0.0 
0.0 
0.0 
0.0 
0.0 
0.0 
0.0 
0.0 
0.0 
0.0 
0.0 
0.0 
0.0 
0.0 
0.0 
0.0 
0.0 
0.0 
0.0 
0.0 
0.0 
0.0 
0.0 
0.0 
0.0 
0.0 
0.0 
0.0 
0.0 
0.0 
0.0 
0.0 
0.0 
0.0 
0.0 
0.0 
0.0 
0.0 
0.0 
0.0 
0.0 
0.0 
0.0 
0.0 
0.0 
0.0 
0.0 
0.0 
0.0 
0.0 
0.0 
0.0 
0.0 
0.0 
0.0 
3.117506253147439e-05 
3.117506253147439e-05 
3.117506253147439e-05 
3.117506253147439e-05 
3.117506253147439e-05 
3.117506253147439e-05 
3.117506253147439e-05 
3.117506253147439e-05 
3.117506253147439e-05 
3.117506253147439e-05 
3.117506253147439e-05 
3.117506253147439e-05 
3.117506253147439e-05 
3.117506253147439e-05 
3.103073353827312e-05 
3.07032177460087e-05 
3.0153657348819245e-05 
2.881583860414593e-05 
2.5890400934258647e-05 
2.1954660311962467e-05 
1.9972912213006563e-05 
0.005231637345559647 
0.005231637345559647 
0.005231637345559647 
0.005231637345559647 
0.005231637345559647 
0.005231637345559647 
0.005231637345559647 
0.005231637345559647 
0.005231637345559647 
0.005231637345559647 
0.005231637345559647 
0.005231637345559647 
0.005231637345559647 
0.005231598487753785 
0.005225903043637458 
0.005197808849999318 
0.0051018744784414585 
0.0048656356721465946 
0.004398292841045758 
0.0037720382373151997 
0.0034503844226207994 
0.6500078475468739 
0.6500078475468739 
0.6500078475468739 
0.6500078475468739 
0.6500078475468739 
0.6500078475468739 
0.6500078475468739 
0.6500078475468739 
0.6500078475468739 
0.6500078475468739 
0.6500078475468739 
0.6500078475468739 
0.6500078475468739 
0.6500074700710455 
0.6499746962873586 
0.6482037462340883 
0.6402951446826676 
0.6159912802061739 
0.5627157462217979 
0.4874024239764906 
0.44723081904507456 
57.367776507000194 
57.367776507000194 
57.367776507000194 
57.367776507000194 
57.367776507000194 
57.367776507000194 
57.367776507000194 