<?xml version="1.0"?>
<VTKFile type="UnstructuredGrid" version="0.1" byte_order="LittleEndian" compressor="vtkZLibDataCompressor">
<UnstructuredGrid>
<Piece NumberOfPoints="441" NumberOfCells="400">
<PointData>
<DataArray type="Float64" Name="displacement" NumberOfComponents="3" format="ascii" >
0.0 5.6806913097037376e-11  0.
-1.546929140163082e-17 5.6806901493292134e-11  0.
-6.614642362670048e-17 5.6806839442596506e-11  0.
-2.429782062497941e-16 5.6806601320558244e-11  0.
-8.013714844153931e-16 5.6805787428864254e-11  0.
-2.3942998663619793e-15 5.68032717324729e-11  0.
-6.5257182861969964e-15 5.679618875862124e-11  0.
-1.6325797449135367e-14 5.67779084418948e-11  0.
-3.7694114485784154e-14 5.673441818529865e-11  0.
-8.070729178341645e-14 5.663857195756813e-11  0.
-1.6091601557827286e-13 5.6442052672534444e-11  0.
-2.9985694510335164e-13 5.606576986917602e-11  0.
-5.238714468465351e-13 5.539073881992849e-11  0.
-8.604404440009598e-13 5.425293085082437e-11  0.
-1.3317618511256388e-12 5.244650592413895e-11  0.
-1.9463716066784455e-12 4.973943367121862e-11  0.
-2.690832110167738e-12 4.590328086269006e-11  0.
-3.5256605183606034e-12 4.0755566561287433e-11  0.
-4.403159096568191e-12 3.423043979962451e-11  0.
-5.590185466606337e-12 2.6816330068558053e-11  0.
-1.242913347268394e-11 2.7163163874183642e-11  0.
0.0 2.074942107971531e-10  0.
-3.734634643737123e-17 2.0749418656747033e-10  0.
-1.6872259506886505e-16 2.074940498340758e-10  0.
-6.548590485889964e-16 2.0749348938067642e-10  0.
-2.2723637874729005e-15 2.074914527416671e-10  0.
-7.108751538053295e-15 2.0748480142043467e-10  0.
-2.0190772547027388e-14 2.0746513299037527e-10  0.
-5.240172170659292e-14 2.0741211571707623e-10  0.
-1.249962196432184e-13 2.0728104626135364e-10  0.
-2.754427917896162e-13 2.0698225299796138e-10  0.
-5.63269082071531e-13 2.0635115319762658e-10  0.
-1.0731569746217568e-12 2.0511094256561113e-10  0.
-1.911495803811746e-12 2.0283507421365802e-10  0.
-3.192609433545429e-12 1.989227876478862e-10  0.
-5.013132879984414e-12 1.926053333697654e-10  0.
-7.417083445894465e-12 1.8299999547255938e-10  0.
-1.0360035912877976e-11 1.6922104527017119e-10  0.
-1.3690144249987548e-11 1.5054659763008225e-10  0.
-1.7255553091888776e-11 1.267187335049609e-10  0.
-2.2634685233891513e-11 1.0014668551900232e-10  0.
-5.7360558557365155e-11 1.0510551221269322e-10  0.
0.0 1.2939994555138347e-09  0.
-1.5031615605920484e-16 1.2939993663408298e-09  0.
-7.191489173511088e-16 1.2939988374075335e-09  0.
-2.9566085499910476e-15 1.293996536822202e-09  0.
-1.0820823680914872e-14 1.293987692760869e-09  0.
-3.552769446082654e-14 1.2939572818422406e-09  0.
-1.0537583219812146e-13 1.2938630778493598e-09  0.
-2.842380254685954e-13 1.293598377824416e-09  0.
-7.015269415248264e-13 1.2929194180025973e-09  0.
-1.593026259751845e-12 1.2913204210547883e-09  0.
-3.3445369524117518e-12 1.28784510980862e-09  0.
-6.520113764157159e-12 1.280842582945496e-09  0.
-1.1847226330369627e-11 1.2677096694016222e-09  0.
-2.013041340968347e-11 1.24470435196199e-09  0.
-3.207784399690564e-11 1.206949227014929e-09  0.
-4.8056208816928615e-11 1.148745949439912e-09  0.
-6.782970078794671e-11 1.0642743225591067e-09  0.
-9.041282906891994e-11 9.486893734292834e-10  0.
-1.1481102462417236e-10 8.0023186639505e-10  0.
-1.5178788096509493e-10 6.348326125780676e-10  0.
-3.8145655368921915e-10 6.737878916115987e-10  0.
0.0 7.178673086334897e-09  0.
-5.382936271470703e-16 7.178672787512504e-09  0.
-2.717905547571262e-15 7.178670929633457e-09  0.
-1.1803546482979993e-14 7.17866238411592e-09  0.
-4.5476942180931074e-14 7.178627723513893e-09  0.
-1.5649809257017408e-13 7.1785025025884015e-09  0.
-4.842623062987428e-13 7.178096833436366e-09  0.
-1.3565174147575436e-12 7.176910322234472e-09  0.
-3.4617937803945974e-12 7.1737566197154376e-09  0.
-8.095305535735174e-12 7.166092796790622e-09  0.
-1.743771193080771e-11 7.148972056698357e-09  0.
-3.4760452937366874e-11 7.113639861378017e-09  0.
-6.438742715976034e-11 7.045989963705969e-09  0.
-1.1122447697635031e-10 6.9253570522265465e-09  0.
-1.7974271874898955e-10 6.724346962277551e-09  0.
-2.7248545467124795e-10 6.4104499232580584e-09  0.
-3.8843889987679214e-10 5.949932887548429e-09  0.
-5.22119188112057e-10 5.3142385664322105e-09  0.
-6.686185050310258e-10 4.493372147610512e-09  0.
-8.96385268143731e-10 3.5878909614437935e-09  0.
-2.194682878762253e-09 3.846955802669853e-09  0.
0.0 3.4484607544170644e-08  0.
-1.7374827862753223e-15 3.4484606643732335e-08  0.
-9.224301667294546e-15 3.448460079547931e-08  0.
-4.2174522878411914e-14 3.4484572461123734e-08  0.
-1.7058919492255563e-13 3.448445162795639e-08  0.
-6.138643460211942e-13 3.448399433096806e-08  0.
-1.977645484967896e-12 3.448244911837461e-08  0.
-5.7419835985196236e-12 3.447775638002023e-08  0.
-1.5123527862911076e-11 3.446486178462843e-08  0.
-3.635463135382672e-11 3.443260180232166e-08  0.
-8.020388292481945e-11 3.4358690755278716e-08  0.
-1.6319893580879965e-10 3.420280504249298e-08  0.
-3.0764760329932555e-10 3.389873053302875e-08  0.
-5.39395161599647e-10 3.334788647770442e-08  0.
-8.826409057848894e-10 3.241775292885452e-08  0.
-1.3520860456239513e-09 3.0949064824832944e-08  0.
-1.944244729702069e-09 2.8774508420876623e-08  0.
-2.6328870369493017e-09 2.5750955357945766e-08  0.
-3.3999487667499484e-09 2.183418996344063e-08  0.
-4.6271064354414184e-09 1.7584597858110198e-08  0.
-1.0976285607643975e-08 1.9090368717851598e-08  0.
0.0 1.4160326083488903e-07  0.
-5.091909067751054e-15 1.4160325838009345e-07  0.
-2.830852223887882e-14 1.4160324178426177e-07  0.
-1.3572215073070954e-13 1.4160315746004547e-07  0.
-5.743806840580795e-13 1.416027808375461e-07  0.
-2.154727038878501e-12 1.4160129303032873e-07  0.
-7.20552776757122e-12 1.4159606794839386e-07  0.
-2.161980385166349e-11 1.41579650198285e-07  0.
-5.859080295155793e-11 1.415331863554859e-07  0.
-1.443371564879023e-10 1.4141396275846768e-07  0.
-3.251220668878041e-10 1.4113489503349998e-07  0.
-6.732278006383969e-10 1.4053566829984984e-07  0.
-1.2876629463308981e-09 1.39349376308535e-07  0.
-2.284736689550462e-09 1.371742854758565e-07  0.
-3.775043654079022e-09 1.3346573118691827e-07  0.
-5.828330417108667e-09 1.2756454788713224e-07  0.
-8.434502270539581e-09 1.1877408796963268e-07  0.
-1.1487041034485575e-08 1.0649910662631582e-07  0.
-1.4951101571679118e-08 9.060936682950392e-08  0.
-2.0677881912097724e-08 7.383966481908158e-08  0.
-4.71924382299409e-08 8.141185879501254e-08  0.
0.0 4.896035576852808e-07  0.
-1.3629622751391932e-14 4.896035515960031e-07  0.
-7.901882741278114e-14 4.896035089004383e-07  0.
-3.956261399883603e-13 4.896032823882302e-07  0.
-1.7453278132787547e-12 4.896022271597892e-07  0.
-6.8024061940905495e-12 4.895978923681075e-07  0.
-2.3531027396407206e-11 4.895821302768878e-07  0.
-7.269230889921366e-11 4.895311060629904e-07  0.
-2.0189713769511613e-10 4.893830671521999e-07  0.
-5.075334321404189e-10 4.889954727078784e-07  0.
-1.1620732006407667e-09 4.880736636923886e-07  0.
-2.4374788746338677e-09 4.86070148847824e-07  0.
-4.708362788741564e-09 4.820685127570444e-07  0.
-8.415383730886273e-09 4.7468697224224295e-07  0.
-1.3977188611607371e-08 4.620541984840343e-07  0.
-2.165691767307281e-08 4.4191332425356445e-07  0.
-3.142116003019e-08 4.118933188526198e-07  0.
-4.290790647933734e-08 3.7001779058067995e-07  0.
-5.623346358877383e-08 3.162377047132327e-07  0.
-7.910636877379829e-08 2.6210862230226417e-07  0.
-1.7215864271718417e-07 2.946415016635767e-07  0.
0.0 1.3998958843926146e-06  0.
-3.34730328232449e-14 1.3998958706006234e-06  0.
-2.0154680995710875e-13 1.3998957706590294e-06  0.
-1.0494430307410837e-12 1.3998952194153702e-06  0.
-4.807888166862752e-12 1.3998925517038025e-06  0.
-1.9400466009456723e-11 1.3998811990423457e-06  0.
-6.917588098544069e-11 1.399838621515019e-06  0.
-2.1915777381317256e-10 1.3996972267048856e-06  0.
-6.210310360855586e-10 1.3992787880942684e-06  0.
-1.5850298545379275e-09 1.3981675121713727e-06  0.
-3.6683488890684944e-09 1.3955003941440305e-06  0.
-7.747298045635687e-09 1.389677055188284e-06  0.
-1.5017619636070124e-08 1.3780391624344514e-06  0.
-2.6861624371862917e-08 1.3566297170308347e-06  0.
-4.45529486285599e-08 1.3201847468957636e-06  0.
-6.883774984281728e-08 1.262497408489736e-06  0.
-9.953910172944673e-08 1.1772404909362813e-06  0.
-1.356577150460925e-07 1.059552208807808e-06  0.
-1.7872212604013622e-07 9.116046943765045e-07  0.
-2.5583462666473667e-07 7.750299570589173e-07  0.
-5.249296232450477e-07 8.925687043234449e-07  0.
0.0 3.2435434990033745e-06  0.
-7.563878473440861e-14 3.243543470461038e-06  0.
-4.711351580881878e-13 3.24354325742796e-06  0.
-2.541011136435833e-12 3.243542040798846e-06  0.
-1.204407840030987e-11 3.243535948412657e-06  0.
-5.0140551472003826e-11 3.2435091883865022e-06  0.
-1.8364952368189104e-10 3.243406047623807e-06  0.
-5.943831490876128e-10 3.2430561012081306e-06  0.
-1.7106188796235633e-09 3.2420049983157406e-06  0.
-4.408942744293138e-09 3.239190657656498e-06  0.
-1.0249831700407089e-08 3.2324245878904337e-06  0.
-2.1642615214977925e-08 3.2177137551903835e-06  0.
-4.1773713104426e-08 3.188593211441981e-06  0.
-7.415462401538993e-08 3.1357728083926486e-06  0.
-1.217532906738657e-07 3.0474510824023193e-06  0.
-1.8593509510308143e-07 2.910514256735849e-06  0.
-2.6570460160921237e-07 2.712699446612717e-06  0.
-3.589669974661027e-07 2.446891025485507e-06  0.
-4.7429588120680325e-07 2.1284732294874647e-06  0.
-6.902820140574342e-07 1.882666817210661e-06  0.
-1.316376026469746e-06 2.2323754609447906e-06  0.
0.0 5.9902588106409044e-06  0.
-1.5759103641430748e-13 5.990258756686125e-06  0.
-1.011610767968997e-12 5.990258343218879e-06  0.
-5.62940942285447e-12 5.990255907709012e-06  0.
-2.7504401963005995e-11 5.990243335096114e-06  0.
-1.1773083165593596e-10 5.990186536457886e-06  0.
-4.4147571831567733e-10 5.989962321693198e-06  0.
-1.4544032279633477e-09 5.989187945982758e-06  0.
-4.232553325696053e-09 5.986838088486085e-06  0.
-1.095781954321601e-08 5.980532322175852e-06  0.
-2.5427507722191752e-08 5.965458186532226e-06  0.
-5.328067581317411e-08 5.933119134088764e-06  0.
-1.0154023812264887e-07 5.870402252183371e-06  0.
-1.771976257982132e-07 5.759694473384911e-06  0.
-2.850610615316647e-07 5.580611979479246e-06  0.
-4.2560331594550996e-07 5.313433061937281e-06  0.
-5.94612028154591e-07 4.94404845507866e-06  0.
-7.894467043836956e-07 4.474658487115882e-06  0.
-1.043119463437585e-06 3.969834353552688e-06  0.
-1.5370979300973224e-06 3.734979113836327e-06  0.
-2.67862295722332e-06 4.567996208558099e-06  0.
0.0 8.861700837564881e-06  0.
-3.0379816919058135e-13 8.861700744078458e-06  0.
-2.0026753317278568e-12 8.861700010749663e-06  0.
-1.1456534148543754e-11 8.86169557152941e-06  0.
-5.749612573808832e-11 8.861672031439046e-06  0.
-2.5222085897325223e-10 8.861563014275594e-06  0.
-9.653185283839147e-10 8.8611236195602e-06  0.
-3.22652476280033e-09 8.859583847596852e-06  0.
-9.457405742609634e-09 8.854881985306238e-06  0.
-2.4471660334201885e-08 8.842304320908423e-06  0.
-5.6335227562141155e-08 8.812618911203682e-06  0.
-1.162962684911145e-07 8.750333698734182e-06  0.
-2.1699739357988438e-07 8.63328106006389e-06  0.
-3.687706239025794e-07 8.434819789370105e-06  0.
-5.751838989466544e-07 8.12915544239719e-06  0.
-8.301581896985011e-07 7.69889420588727e-06  0.
-1.121121186066831e-06 7.144948928721125e-06  0.
-1.4504247854344275e-06 6.5120495854191765e-06  0.
-1.9115720829412706e-06 5.990846125761179e-06  0.
-2.8204117673547905e-06 6.158504977687438e-06  0.
-4.420605168761013e-06 7.689438372323829e-06  0.
0.0 1.1117877127348408e-05  0.
-5.449568659977167e-13 1.1117876977722889e-05  0.
-3.677305595844619e-12 1.111787577973911e-05  0.
-2.1553131933132026e-11 1.1117868352286002e-05  0.
-1.1074995776284049e-10 1.111782802774666e-05  0.
-4.964204246958985e-10 1.1117637172866846e-05  0.
-1.933873330650854e-09 1.1116853921915759e-05  0.
-6.540230552422616e-09 1.1114076332023839e-05  0.
-1.9245662415844013e-08 1.1105568031562912e-05  0.
-4.955765369360381e-08 1.108298057768126e-05  0.
-1.1255054542902486e-07 1.1030678862750417e-05  0.
-2.2737900133114239e-07 1.0924239624174652e-05  0.
-4.121900335115949e-07 1.0732389532269792e-05  0.
-6.764568432696599e-07 1.0423711579213235e-05  0.
-1.0138866771580568e-06 9.977341321150239e-06  0.
-1.4023833351575724e-06 9.394568432375048e-06  0.
-1.8176129848097924e-06 8.715725136393465e-06  0.
-2.2867725900944604e-06 8.076926689960401e-06  0.
-3.007221850840847e-06 7.886177523792067e-06  0.
-4.349647278287623e-06 8.91363112343608e-06  0.
-6.10483913798445e-06 1.0983638764920154e-05  0.
0.0 1.3218328503014363e-05  0.
-9.138917382537042e-13 1.3218328281141231e-05  0.
-6.294098276180666e-12 1.3218326472646895e-05  0.
-3.768218172666722e-11 1.3218315023945487e-05  0.
-1.9767694375230653e-10 1.3218251575683e-05  0.
-9.029799642893286e-10 1.3217945507896003e-05  0.
-3.5722326955616328e-09 1.3216669567986669e-05  0.
-1.2197834729179671e-08 1.3212100049475183e-05  0.
-3.594865459050403e-08 1.3198089825336318e-05  0.
-9.181085794484355e-08 1.316129994718623e-05  0.
-2.047553649708576e-07 1.3078168777240175e-05  0.
-4.0252675910970267e-07 1.2915285100116652e-05  0.
-7.044566083198089e-07 1.2636240777790366e-05  0.
-1.109245664524216e-06 1.221466149879563e-05  0.
-1.589483696423819e-06 1.1647867274066931e-05  0.
-2.1016585542775417e-06 1.096870190142105e-05  0.
-2.6260310125347626e-06 1.0270741868484116e-05  0.
-3.2561755690472243e-06 9.818379992407015e-06  0.
-4.299790861281854e-06 1.0235770436708055e-05  0.
-5.937805222743089e-06 1.2058989487394768e-05  0.
-7.598463981428084e-06 1.4002165652174072e-05  0.
0.0 1.5789892176218836e-05  0.
-1.4349791213510792e-12 1.5789891873152345e-05  0.
-1.0059062552108075e-11 1.5789889364072646e-05  0.
-6.133970940249344e-11 1.5789873189931362e-05  0.
-3.2761034667137406e-10 1.5789781933548815e-05  0.
-1.521312771402608e-09 1.5789334355067563e-05  0.
-6.098943697071769e-09 1.5787442847302367e-05  0.
-2.0990839658223597e-08 1.5780612804500962e-05  0.
-6.185358176473443e-08 1.5759682842246993e-05  0.
-1.5631792791095118e-07 1.570543638199172e-05  0.
-3.4113534440872e-07 1.5586311826561103e-05  0.
-6.497168001697769e-07 1.5363067858348926e-05  0.
-1.093023759508139e-06 1.5002342042817707e-05  0.
-1.6461888780520052e-06 1.4493916856507364e-05  0.
-2.2564414622987565e-06 1.3860300257550071e-05  0.
-2.8744257296223727e-06 1.3162840325959515e-05  0.
-3.5320513918347014e-06 1.2552299195348916e-05  0.
-4.437023340051021e-06 1.2432594477596172e-05  0.
-5.8994972601900494e-06 1.3452217592539028e-05  0.
-7.660208740987104e-06 1.5335128054663585e-05  0.
-9.174955348127246e-06 1.6588709804640463e-05  0.
0.0 1.8221227417056538e-05  0.
-2.112706984361409e-12 1.822122703687355e-05  0.
-1.5033916796532266e-11 1.8221223847341454e-05  0.
-9.311950729063674e-11 1.8221202967744822e-05  0.
-5.050013035293845e-10 1.8221083352656358e-05  0.
-2.378125425970836e-09 1.8220488324921866e-05  0.
-9.64188834228901e-09 1.821794433978119e-05  0.
-3.339659588391589e-08 1.8208696065104172e-05  0.
-9.827750766784884e-08 1.8180398851580248e-05  0.
-2.454199136376806e-07 1.810809606808045e-05  0.
-5.228275596561333e-07 1.795422463032779e-05  0.
-9.616249010616647e-07 1.767993177509853e-05  0.
-1.5518552150074994e-06 1.726435332514983e-05  0.
-2.2385220977306665e-06 1.671819808398434e-05  0.
-2.9582083373393167e-06 1.608114193630864e-05  0.
-3.702560614892564e-06 1.542807872529861e-05  0.
-4.596972748006538e-06 1.498566407107346e-05  0.
-5.9454644039851084e-06 1.5281701783804342e-05  0.
-7.796541878144225e-06 1.666706403501829e-05  0.
-9.530196131099326e-06 1.7999771846599023e-05  0.
-1.0843368428760532e-05 1.8854716257100362e-05  0.
0.0 2.0455952708162347e-05  0.
-2.9238137947643813e-12 2.045595227112587e-05  0.
-2.1067600400021315e-11 2.04559485642201e-05  0.
-1.3220150604904752e-10 2.04559239871716e-05  0.
-7.261466123241761e-10 2.0455781404427522e-05  0.
-3.4597482861198167e-09 2.045506377225554e-05  0.
-1.4159218987659218e-08 2.0451966111647478e-05  0.
-4.9292484373726737e-08 2.0440644454290925e-05  0.
-1.447632953629883e-07 2.04060763151128e-05  0.
-3.5706043217099814e-07 2.0319012302316815e-05  0.
-7.418176559057389e-07 2.013963826893913e-05  0.
-1.3155163749405871e-06 1.983661009832077e-05  0.
-2.0372644385742412e-06 1.9407688339523363e-05  0.
-2.8332958780551157e-06 1.8877576128746733e-05  0.
-3.6642899627305435e-06 1.8285097743972674e-05  0.
-4.612302900012864e-06 1.772405232572141e-05  0.
-5.879167482239544e-06 1.75187064130264e-05  0.
-7.663781966107495e-06 1.8219666704176817e-05  0.
-9.58913257102637e-06 1.9565131245919453e-05  0.
-1.1067556055416582e-05 2.0333617222464514e-05  0.
-1.2319582554133402e-05 2.142636691379024e-05  0.
0.0 2.2961360111388428e-05  0.
-3.80762753149604e-12 2.296135965774472e-05  0.
-2.771467283814271e-11 2.2961355775338388e-05  0.
-1.7575214670347518e-10 2.29613297659509e-05  0.
-9.75371403852847e-10 2.296117731077899e-05  0.
-4.691448959590293e-09 2.2960402596918094e-05  0.
-1.9346156754494012e-08 2.295703219108328e-05  0.
-6.761848349791949e-08 2.2944659869126492e-05  0.
-1.981507226615809e-07 2.2906962118407148e-05  0.
-4.830575615010967e-07 2.2813264197432726e-05  0.
-9.79602502396436e-07 2.262612128120664e-05  0.
-1.676184089547242e-06 2.2326654579137743e-05  0.
-2.4993408084685115e-06 2.193074122086917e-05  0.
-3.3907117358399186e-06 2.1462519897493778e-05  0.
-4.37153911431181e-06 2.094592730417711e-05  0.
-5.597933183597943e-06 2.0524898281079632e-05  0.
-7.241463580607371e-06 2.061439894514757e-05  0.
-9.128273662274138e-06 2.1535037706013214e-05  0.
-1.0762669409611394e-05 2.2428907164790484e-05  0.
-1.1948732831089262e-05 2.283990621242177e-05  0.
-1.336782364313177e-05 2.4027874069957772e-05  0.
0.0 2.5284600789339553e-05  0.
-4.6705682829383435e-12 2.5284600373144517e-05  0.
-3.4261183468962705e-11 2.5284596786758832e-05  0.
-2.1903269093646785e-10 2.5284572569073663e-05  0.
-1.2252618660059245e-09 2.5284429492746022e-05  0.
-5.936602054278552e-09 2.5283697077712222e-05  0.
-2.4623962119579635e-08 2.528049147350713e-05  0.
-8.632216511443215e-08 2.5268685414439773e-05  0.
-2.524428062086122e-07 2.5232780713381267e-05  0.
-6.091923322202938e-07 2.5144538507068407e-05  0.
-1.2091649305319761e-06 2.4973047959255355e-05  0.
-2.003164976859995e-06 2.4712117522205834e-05  0.
-2.8932510892719165e-06 2.4388456621039622e-05  0.
-3.880990608552072e-06 2.4014799070877775e-05  0.
-5.060194707958502e-06 2.3600011777073973e-05  0.
-6.54010617451067e-06 2.3349285325609364e-05  0.
-8.328953028771616e-06 2.3675555340058552e-05  0.
-9.969597140038445e-06 2.4466422854207947e-05  0.
-1.1304613708827219e-05 2.4885345918561976e-05  0.
-1.2636418124379305e-05 2.5244278669080942e-05  0.
-1.3873894777318093e-05 2.5891560021357694e-05  0.
0.0 2.7683703592841205e-05  0.
-5.401543049455665e-12 2.7683703272393672e-05  0.
-3.9842374168481164e-11 2.7683700497638247e-05  0.
-2.5617990024548214e-10 2.7683681655105255e-05  0.
-1.441166125578649e-09 2.7683569712414444e-05  0.
-7.0190193575601605e-09 2.768299368886625e-05  0.
-2.9234417096948654e-08 2.7680461862817918e-05  0.
-1.0269797035644468e-07 2.7671116081779415e-05  0.
-2.9984258907274757e-07 2.7642736781695123e-05  0.
-7.179340992237797e-07 2.7573588362715056e-05  0.
-1.401128940210394e-06 2.7442063766368907e-05  0.
-2.261707806180155e-06 2.725011763279411e-05  0.
-3.1897661932508878e-06 2.7024523084106894e-05  0.
-4.274863156561062e-06 2.6766321091548292e-05  0.
-5.659409974757777e-06 2.647846816056075e-05  0.
-7.258038971878887e-06 2.6376559212517485e-05  0.
-8.928715900023875e-06 2.6742744223242205e-05  0.
-1.039338362446336e-05 2.7201779864142586e-05  0.
-1.1693603191599126e-05 2.736225292435113e-05  0.
-1.3240504298764957e-05 2.7777097205968496e-05  0.
-1.4246007750660972e-05 2.7994959691565518e-05  0.
0.0 3.00691982623269e-05  0.
-5.892568838483938e-12 3.0069198087830948e-05  0.
-4.3607492236003926e-11 3.0069196572424895e-05  0.
-2.8135126116463333e-10 3.0069186246677934e-05  0.
-1.5881076673283276e-09 3.0069124693800803e-05  0.
-7.758686319809387e-09 3.0068806956680406e-05  0.
-3.2395106262766515e-08 3.006740674507708e-05  0.
-1.1394080295001738e-07 3.006223070322125e-05  0.
-3.323191408741781e-07 3.0046526649928938e-05  0.
-7.917810663092144e-07 3.000846280547834e-05  0.
-1.5286421429102358e-06 2.993703859465536e-05  0.
-2.426316874143905e-06 2.983561899782688e-05  0.
-3.372400975832873e-06 2.97206737901081e-05  0.
-4.534289515587819e-06 2.9589492949631334e-05  0.
-6.0681518801920805e-06 2.9443496826817895e-05  0.
-7.66602264299092e-06 2.941785286473965e-05  0.
-9.166729800610366e-06 2.964204234735397e-05  0.
-1.0690795586824337e-05 2.9845399351678e-05  0.
-1.2058009098883826e-05 2.9867014295418643e-05  0.
-1.3424463073097072e-05 3.009855980841232e-05  0.
-1.464335095210673e-05 3.0327089839319224e-05  0.
0.0 3.244999999999995e-05  0.
-6.065691411909746e-12 3.244999999999995e-05  0.
-4.493783562670793e-11 3.244999999999995e-05  0.
-2.902651886104287e-10 3.244999999999995e-05  0.
-1.640259986999466e-09 3.244999999999995e-05  0.
-8.021751103912585e-09 3.244999999999995e-05  0.
-3.352108133570633e-08 3.244999999999995e-05  0.
-1.1794914626818174e-07 3.244999999999995e-05  0.
-3.438866756529723e-07 3.244999999999995e-05  0.
-8.179663969185166e-07 3.244999999999995e-05  0.
-1.5733390174995294e-06 3.244999999999995e-05  0.
-2.482714912948588e-06 3.244999999999995e-05  0.
-3.433947259896364e-06 3.244999999999995e-05  0.
-4.625166560577752e-06 3.244999999999995e-05  0.
-6.2124154003597035e-06 3.244999999999995e-05  0.
-7.793246209256699e-06 3.244999999999995e-05  0.
-9.228705104988687e-06 3.244999999999995e-05  0.
-1.0814530201731444e-05 3.244999999999995e-05  0.
-1.2195860708116884e-05 3.244999999999995e-05  0.
-1.339988892221808e-05 3.244999999999995e-05  0.
-1.4785019386053957e-05 3.244999999999995e-05  0.
</DataArray>
<DataArray type="Float64" Name="sigma_xx" NumberOfComponents="1" format="ascii" >
843.848683684811 
843.8482256734044 
843.8459616733059 
843.8380585618073 
843.8134012300754 
843.7433927310774 
843.5612188883997 
843.1241763195981 
842.1524304025315 
840.1405671709658 
836.2461566990828 
829.1723444187046 
817.0772081816933 
797.5553722505688 
767.7403591421769 
724.5613705963992 
665.1459468043352 
587.1630425979822 
486.71364354935224 
318.7873897136926 
207.42654324168433 
3464.141753550808 
3464.1405382174185 
3464.1342969599077 
3464.1114534161843 
3464.0368788307883 
3463.8161879763084 
3463.219952049011 
3461.7403359304953 
3458.348957469103 
3451.1339708331857 
3436.8245119958938 
3410.2654968365387 
3363.976766793119 
3287.9959349169085 
3170.228408974628 
2997.477254229607 
2757.1533355613674 
2438.9398199237125 
2027.8411835911165 
1378.7162749523402 
961.0041964647204 
19519.398456446786 
19519.39371528932 
19519.36840235979 
19519.271339357707 
19518.940484136707 
19517.923064854553 
19515.08021031389 
19507.81575734139 
19490.738805949528 
19453.611885494873 
19378.60408259828 
19237.18751607461 
18987.442117451843 
18572.93491138167 
17924.506721492253 
16966.01632761307 
15624.059138186201 
13837.0316385028 
11511.613454401322 
7829.531562836275 
5461.330147266128 
92935.8784869216 
92935.86190959321 
92935.77015659357 
92935.40301398837 
92934.10149918131 
92929.95849227157 
92918.03139387097 
92886.76847090668 
92811.68986017272 
92645.54483684458 
92304.98914113146 
91655.40003090163 
90497.5812012376 
88562.05344130172 
85517.41968520485 
80997.75814892349 
74648.5159265203 
66163.4005091005 
55029.54669492908 
37182.22271126002 
25657.573525578166 
376423.03505998047 
376422.98258782056 
376422.68210412713 
376421.43083353445 
376416.8307982095 
376401.7191880463 
376357.04460657877 
376237.3671976847 
375944.9177295924 
375289.0056264445 
373931.1626754253 
371323.31287096906 
366654.9878736546 
358833.30182069336 
346521.04626777803 
328250.59624342056 
302604.43730931997 
268316.239897906 
222963.74287484313 
149346.69512232096 
101628.56323864263 
1274704.2068098064 
1274704.055481934 
1274703.160946505 
1274699.2961279454 
1274684.6069865532 
1274634.9733240288 
1274484.870830533 
1274075.721888637 
1273063.4950701476 
1270775.5546480203 
1266021.727444055 
1256890.4173515579 
1240590.8768703535 
1213422.6712766618 
1170949.1072196595 
1108409.3002946354 
1021289.7068541362 
905367.6778550649 
750943.4959644288 
497083.3523287308 
331959.73797188175 
3525878.420638394 
3525878.021144695 
3525875.589504622 
3525864.723506299 
3525822.160032273 
3525674.7333798143 
3525220.4685812704 
3523966.6133113042 
3520844.170947359 
3513779.5613536513 
3499161.520860698 
3471326.4342579837 
3422266.444816268 
3341783.146510062 
3218232.276758477 
3039808.041433868 
2795876.9256295552 
2475573.1971847876 
2046347.4460871317 
1332069.2702567189 
866275.0576046648 
7722868.870214481 
7722867.901783811 
7722861.847723897 
7722833.956378248 
7722721.707623132 
7722324.47806668 
7721082.346180867 
7717627.857048468 
7709021.978353229 
7689679.43534413 
7650183.402575661 
7576434.362260692 
7449705.654061179 
7248060.700595031 
6949081.856030449 
6533168.127232025 
5985124.832196154 
5284641.959734211 
4341100.671679445 
2754935.670619939 
1720511.4350639638 
12883656.995191647 
12883654.834443238 
12883640.997704769 
12883575.484772315 
12883305.429104485 
12882332.091072205 
12879254.960003495 
12870674.543149848 
12849426.278794117 
12802364.370329726 
12708487.201522246 
12538719.58839574 
12258640.93665224 
11834452.18591709 
11240753.423520189 
10466493.276994787 
9511678.444559682 
8349244.594330113 
6771456.888973301 
4114374.146422834 
2394824.1147951 
15775049.598615814 
15775045.146502588 
15775016.015575288 
15774874.692503741 
15774279.68467153 
15772101.639655538 
15765162.870003993 
15745849.028710963 
15698594.513038544 
15596286.579098374 
15399008.66749211 
15058142.30910885 
14527589.799139543 
13779998.911235662 
12821714.255227325 
11695923.247413937 
10456347.94608343 
9061071.13430461 
7120092.29759071 
3950598.937453154 
1969121.5557140629 
14394667.175935376 
14394658.660542335 
14394601.858995218 
14394320.26299693 
14393112.268337224 
14388631.344101314 
14374282.056939144 
14334553.135029308 
14239027.340845454 
14038397.203456363 
13668302.945273127 
13065949.368981566 
12198250.10667492 
11091144.285818303 
9841389.389786933 
8593593.737244396 
7450827.653545727 
6267972.615717496 
4452722.310349641 
1885389.5406017427 
489521.27154935675 
12225157.51977808 
12225142.32660811 
12225039.224903252 
12224518.147066863 
12222245.366737626 
12213717.472019877 
12186316.333083685 
12111050.135805398 
11934000.434847634 
11575870.331665732 
10950511.575236026 
10006235.985502157 
8775015.060766833 
7399778.8060526345 
6106712.311784934 
5105145.983171472 
4396653.900319934 
3520788.251076934 
1813025.8093898734 
153449.6180208849 
-372803.4399375438 
13112501.560918907 
13112476.20905769 
13112301.54306623 
13111403.675554885 
13107429.872335505 
13092371.987183157 
13043895.778289272 
12912054.234107284 
12609821.286069812 
12025277.930621808 
11070133.349598687 
9755403.490086818 
8246783.8803061 
6839186.201565617 
5832750.788042876 
5312565.220924115 
4909403.135677537 
3752098.688164182 
1582255.7782619344 
72037.41522749713 
-172302.27922870565 
14043169.53170684 
14043129.899836741 
14042853.230763538 
14041409.948237384 
14034941.077643145 
14010224.070133138 
13930589.160168098 
13716427.489119342 
13239428.619088454 
12363434.847646393 
11041084.0870399 
9415908.246541234 
7833266.619293766 
6681413.0140235815 
6132660.065815329 
5893545.506737946 
5115950.378010991 
3035692.0991760627 
575145.1454735352 
-432423.89886206045 
-397483.85312081897 
13095482.068969283 
13095423.898430174 
13095013.207818653 
13092843.670654144 
13083014.210803568 
13045193.523317505 
12923332.862714613 
12599428.12581186 
11899603.831720015 
10686286.543882154 
9017341.662698662 
7229869.2934401445 
5814246.322047878 
5071874.167461077 
4780818.81132634 
4206730.336879907 
2427733.102230678 
-267512.7416462278 
-1714112.52478969 
-971745.4178161743 
-172682.24128159304 
13303899.821582848 
13303819.530453531 
13303247.287141468 
13300192.334490407 
13286225.800751794 
13232176.075877082 
13058089.849279383 
12600614.241448157 
11641792.591668837 
10078431.03719765 
8147038.3641753895 
6397676.498304632 
5312004.571869911 
4865501.419233462 
4350395.871667975 
2919954.764931301 
467626.0740402726 
-1548650.655515052 
-1246478.5829802202 
61099.40760306094 
477845.8312359883 
13552863.749356009 
13552759.408210935 
13552010.042824395 
13547975.262606338 
13529393.831674153 
13457152.028186725 
13224613.561529152 
12619868.002611192 
11388169.562130174 
9500852.063660515 
7434791.394028895 
5912274.1081782635 
5155417.157540559 
4649754.215175547 
3524680.9974269564 
1387777.7885768744 
-581553.0943858393 
-970306.1742996178 
109177.22301999622 
124358.67854530306 
-661334.3380287427 
13253742.500857642 
13253614.701148007 
13252691.415758532 
13247687.380243476 
13224511.77289557 
13134089.363946766 
12843217.783458041 
12093395.084861165 
10603821.955964545 
8450258.11331657 
6377165.895509371 
5192968.759455899 
4609716.957461784 
3640144.416663859 
1958390.5554815233 
-46171.81568795626 
-853066.2383877118 
-156365.08028107893 
88364.2253184744 
-188901.41208300053 
-221932.1246104769 
13428867.293605313 
13428719.652956665 
13427648.53594883 
13421816.07872981 
13394695.186326267 
13288615.128148552 
12947564.31606831 
12074227.1519481 
10372611.84787 
8028346.971419106 
6031227.48932098 
5189480.510229466 
4589597.6486146515 
2946096.9789475873 
1118989.9275602156 
64806.0878388479 
-98645.07646647762 
443575.7728012996 
-227963.71667428396 
102511.65898023412 
1436072.3732570386 
13377374.579492379 
13377213.618882526 
13376042.93029808 
13369650.452828003 
13339854.149306312 
13223136.16258809 
12848022.362164598 
11891443.543772466 
10050477.57376038 
7594613.37693364 
5686020.3999663815 
5092422.882419195 
4384341.839321651 
2168213.2984416154 