<?xml version="1.0"?>
<VTKFile type="UnstructuredGrid" version="0.1" byte_order="LittleEndian" compressor="vtkZLibDataCompressor">
<UnstructuredGrid>
<Piece NumberOfPoints="441" NumberOfCells="400">
<PointData>
<DataArray type="Float64" Name="displacement" NumberOfComponents="3" format="ascii" >
0.0 3.489650228201973e-15  0.
1.1762012506794169e-21 3.4896404992514187e-15  0.
-1.1076464553176878e-21 3.489640941022925e-15  0.
-7.0138506684132e-21 3.4896339223093824e-15  0.
-2.5545543743016698e-20 3.4895916857182437e-15  0.
-7.637584363103449e-20 3.489500445874481e-15  0.
-2.28640851258552e-19 3.4892460195721364e-15  0.
-6.196519176857047e-19 3.488479031331559e-15  0.
-1.5388472965844908e-18 3.4865710114126227e-15  0.
-3.505845468262069e-18 3.482050196327625e-15  0.
-7.354030359950124e-18 3.472308896017057e-15  0.
-1.4309365260805947e-17 3.452784568527811e-15  0.
-2.5971139107374397e-17 3.416398507529434e-15  0.
-4.400392289263235e-17 3.3530786262963847e-15  0.
-6.992566660181007e-17 3.249772733424034e-15  0.
-1.0446849628099359e-16 3.0914242609400836e-15  0.
-1.4703136117775905e-16 2.8627805842519227e-15  0.
-1.9537980476206446e-16 2.551201337829895e-15  0.
-2.4625218926272237e-16 2.1504501593291326e-15  0.
-3.1366990399310755e-16 1.678989517596806e-15  0.
-8.215460711365208e-16 1.6874935729677603e-15  0.
0.0 2.443163265913482e-14  0.
-5.367701007742315e-21 2.4431633909418613e-14  0.
-4.673048466435433e-21 2.443162910155116e-14  0.
-2.355640289717215e-20 2.4431607448122273e-14  0.
-1.0087189816689142e-19 2.4431513377861567e-14  0.
-3.632795668048171e-19 2.4431147384917442e-14  0.
-1.1669960163647154e-18 2.442988622011469e-14  0.
-3.3964992983620796e-18 2.4426099291950332e-14  0.
-8.889963113091763e-18 2.4415800207601426e-14  0.
-2.1160570216003102e-17 2.4390392477255827e-14  0.
-4.6149566822188936e-17 2.433308064660796e-14  0.
-9.284651674484942e-17 2.4214087095030887e-14  0.
-1.7313050010659508e-16 2.398532607480623e-14  0.
-3.005636076157643e-16 2.3576324257602306e-14  0.
-4.874985508207833e-16 2.28936729852043e-14  0.
-7.4095056673492595e-16 2.1826657425048274e-14  0.
-1.0579560242098845e-15 2.0260705516854442e-14  0.
-1.4222431736822988e-15 1.8098214223974918e-14  0.
-1.808863321000686e-15 1.5288762095183966e-14  0.
-2.3263952103365973e-15 1.2000915167887601e-14  0.
-6.636423721471907e-15 1.2310289667024565e-14  0.
0.0 3.027063714387175e-13  0.
-7.368837324403945e-21 3.0270637847325577e-13  0.
-2.6439108775039012e-20 3.027063493090855e-13  0.
-1.4888325610499991e-19 3.027062255105774e-13  0.
-7.035680654493338e-19 3.0270560382637e-13  0.
-2.861643822602815e-18 3.027028679540975e-13  0.
-1.0082080483599905e-17 3.026927093644941e-13  0.
-3.135980512066894e-17 3.0265960591783076e-13  0.
-8.695769409257738e-17 3.025638406285293e-13  0.
-2.1756013771970933e-16 3.023147047286408e-13  0.
-4.95175485009556e-16 3.0172640622866704e-13  0.
-1.0331373688699896e-15 3.0045574316323095e-13  0.
-1.9874110591818766e-15 2.979293002771391e-13  0.
-3.5428545258168114e-15 2.932806147630882e-13  0.
-5.876604733825576e-15 2.853300616367386e-13  0.
-9.10164896223159e-15 2.726444867920951e-13  0.
-1.3199725007098027e-14 2.537042490712017e-13  0.
-1.797087385886358e-14 2.2717799078195136e-13  0.
-2.3089448510114775e-14 1.9233592421501694e-13  0.
-2.997392186630414e-14 1.5132280268615194e-13  0.
-8.514970263878137e-14 1.5599005838672663e-13  0.
0.0 3.340296195907265e-12  0.
-1.635216797765838e-20 3.3402961860660433e-12  0.
-1.2050075324801874e-19 3.3402961090245716e-12  0.
-7.927043263463366e-19 3.34029548158283e-12  0.
-4.254976961280199e-18 3.3402919247668344e-12  0.
-1.9223073683893437e-17 3.3402747302921838e-12  0.
-7.42525627139487e-17 3.340204359529052e-12  0.
-2.4904569264815327e-16 3.3399556123178366e-12  0.
-7.370284252180648e-16 3.3391836348629013e-12  0.
-1.9477927271592487e-15 3.337052492035689e-12  0.
-4.646428845441584e-15 3.3317592860130806e-12  0.
-1.0087484593108463e-14 3.319824330037488e-12  0.
-2.0074563458315336e-14 3.2952092632968767e-12  0.
-3.6826528984546675e-14 3.2484870914268747e-12  0.
-6.258234428416911e-14 3.166448195534659e-12  0.
-9.890456442100314e-14 3.0326252490644133e-12  0.
-1.4585208056113184e-13 2.829114077270754e-12  0.
-2.012749845319341e-13 2.5397838693406255e-12  0.
-2.615089226084933e-13 2.1553491648260557e-12  0.
-3.4384254758996504e-13 1.70116745240771e-12  0.
-9.662373001433242e-13 1.7624487575140058e-12  0.
0.0 3.24089133585847e-11  0.
-6.304004933183812e-20 3.2408913322019894e-11  0.
-5.001762070958431e-19 3.240891298830585e-11  0.
-3.6051391661094844e-18 3.240891041598398e-11  0.
-2.1690882394934915e-17 3.240889373435432e-11  0.
-1.0934186969363305e-16 3.2408803384012145e-11  0.
-4.645785704571875e-16 3.240839332013494e-11  0.
-1.6943465092244545e-15 3.240680645684353e-11  0.
-5.381227098025234e-15 3.240148891444644e-11  0.
-1.5108796975199378e-14 3.238581484911708e-11  0.
-3.7926546639750776e-14 3.2344666924714985e-11  0.
-8.599434338760374e-14 3.224741489860045e-11  0.
-1.775067312124821e-13 3.203869086764509e-11  0.
-3.358740333893818e-13 3.162893327362534e-11  0.
-5.857435326509096e-13 3.0888763344687376e-11  0.
-9.459140967882361e-13 2.965241740537303e-11  0.
-1.4198305964511166e-12 2.773499376567233e-11  0.
-1.9877188443141577e-12 2.496518290306683e-11  0.
-2.613605608421853e-12 2.1240216293671087e-11  0.
-3.485338468258755e-12 1.6827373521768622e-11  0.
-9.662975622725326e-12 1.753801584283594e-11  0.
0.0 2.7384376228721794e-10  0.
-1.9987921918402664e-19 2.7384376218274006e-10  0.
-1.7880070430815684e-18 2.7384376110414437e-10  0.
-1.4072393924775055e-17 2.73843751923887e-10  0.
-9.372649164143215e-17 2.7384368611067623e-10  0.
-5.242451924099297e-16 2.738432895156245e-10  0.
-2.4633193832885872e-15 2.7384128593040696e-10  0.
-9.807106864867461e-15 2.7383276129761835e-10  0.
-3.363618846106023e-14 2.7380171105981843e-10  0.
-1.0076297412651648e-13 2.737034758266227e-10  0.
-2.673600919651569e-13 2.7342953563189976e-10  0.
-6.350713487827587e-13 2.72748276004848e-10  0.
-1.3635999021914502e-12 2.7122182730027636e-10  0.
-2.6664858670658317e-12 2.6811487452760224e-10  0.
-4.78020832787412e-12 2.6232995879785044e-10  0.
-7.897037162257667e-12 2.5242072799008696e-10  0.
-1.2076878988015777e-11 2.367306208340674e-10  0.
-1.7163399499231698e-11 2.1368246430716153e-10  0.
-2.285708910906391e-11 1.822983786077759e-10  0.
-3.096037008984311e-11 1.450764743696511e-10  0.
-8.440024077903288e-11 1.523001050567588e-10  0.
0.0 1.9928840557934484e-09  0.
-5.682388020241207e-19 1.99288405554011e-09  0.
-5.6217230580235386e-18 1.992884052429769e-09  0.
-4.7897696984052965e-17 1.992884023941163e-09  0.
-3.483823503028426e-16 1.992883801260486e-09  0.
-2.1408778994532667e-15 1.992882326553347e-09  0.
-1.1066437329210926e-14 1.9928741103369643e-09  0.
-4.823253982987285e-14 1.992835606128069e-09  0.
-1.7903986497160816e-13 1.992682826009381e-09  0.
-5.747122290968449e-13 1.9921617039340267e-09  0.
-1.6163662144136916e-12 1.9906126753891674e-09  0.
-4.034682385151876e-12 1.986545281474561e-09  0.
-9.029031476427828e-12 1.977006599586297e-09  0.
-1.8280368204592536e-11 1.9568340480897908e-09  0.
-3.372437611153333e-11 1.918060556147482e-09  0.
-5.7048818271567107e-11 1.8498735294733316e-09  0.
-8.893387194933459e-11 1.7395613214984216e-09  0.
-1.283685833346536e-10 1.5746990435446081e-09  0.
-1.7325192141215035e-10 1.3474138109263308e-09  0.
-2.387662958635446e-10 1.078288712717692e-09  0.
-6.371622361690306e-10 1.1420756847712303e-09  0.
0.0 1.2329748634827258e-08  0.
-1.4953394100097979e-18 1.2329748634168157e-08  0.
-1.5775621121490855e-17 1.2329748626181665e-08  0.
-1.4412566019887416e-16 1.2329748548295826e-08  0.
-1.130703044296922e-15 1.2329747892396621e-08  0.
-7.545432412170348e-15 1.2329743180058928e-08  0.
-4.2528670467640515e-14 1.232971452835801e-08  0.
-2.0195859849084954e-13 1.2329567838456975e-08  0.
-8.11810222340218e-13 1.2328934097001127e-08  0.
-2.7935888238446518e-12 1.2326603478413213e-08  0.
-8.345180282882708e-12 1.2319204512956592e-08  0.
-2.1914370205095963e-11 1.2298662543656703e-08  0.
-5.1185057384478004e-11 1.2248163347072409e-08  0.
-1.0735945997429048e-10 1.2137095938270157e-08  0.
-2.039396967067384e-10 1.1916565469466104e-08  0.
-3.5327186171729455e-10 1.1518300435750203e-08  0.
-5.613970159919738e-10 1.0859974005898775e-08  0.
-8.228911223006172e-10 9.859225196127704e-09  0.
-1.126036265591078e-09 8.463618961266128e-09  0.
-1.5816152310542074e-09 6.82165075149629e-09  0.
-4.1074897627791205e-09 7.305864078507807e-09  0.
0.0 6.385989705816501e-08  0.
-3.586472902407718e-18 6.385989705671007e-08  0.
-4.000198284988331e-17 6.385989703837487e-08  0.
-3.8761189532501514e-16 6.385989684853033e-08  0.
-3.2462208438180008e-15 6.38598951451041e-08  0.
-2.326701763002573e-14 6.385988201798753e-08  0.
-1.4152901631025637e-13 6.385979593276335e-08  0.
-7.266511907716027e-13 6.385931884874084e-08  0.
-3.148602068724105e-12 6.38570907344628e-08  0.
-1.1594772038573808e-11 6.384828192406031e-08  0.
-3.6737306571820564e-11 6.381848266679022e-08  0.
-1.0144174217954488e-10 6.373109066188377e-08  0.
-2.4708307368771336e-10 6.350612692726305e-08  0.
-5.365536129110447e-10 6.299201590101835e-08  0.
-1.0483654653690528e-09 6.193875137054287e-08  0.
-1.857675915307551e-09 5.998790021606318e-08  0.
-3.005547094016842e-09 5.669782959623579e-08  0.
-4.46930114596075e-09 5.1618850991847754e-08  0.
-6.199689580497892e-09 4.447226373238107e-08  0.
-8.89014764123162e-09 3.61886098705358e-08  0.
-2.2293372335436948e-08 3.930915743731846e-08  0.
0.0 2.718115211458332e-07  0.
-7.904788491054618e-18 2.7181152114296456e-07  0.
-9.224331662038296e-17 2.718115211047188e-07  0.
-9.408006994361602e-16 2.718115206888132e-07  0.
-8.334482374876697e-15 2.7181151674804014e-07  0.
-6.352929308915008e-14 2.7181148450307746e-07  0.
-4.129191174326492e-13 2.718112587910687e-07  0.
-2.2716502248643032e-12 2.7180991866004584e-07  0.
-1.0539397945117022e-11 2.718032069971508e-07  0.
-4.133783922440432e-11 2.7177486566640325e-07  0.
-1.3835277378188961e-10 2.7167324949580987e-07  0.
-4.00309787679299e-10 2.7135998591079607e-07  0.
-1.0134073206114389e-09 2.7051930226563776e-07  0.
-2.271098179093893e-09 2.685314834105201e-07  0.
-4.549643388760842e-09 2.643467453834414e-07  0.
-8.220382567466437e-09 2.5642989745119785e-07  0.
-1.3498330746646673e-08 2.428633994274655e-07  0.
-2.0308219753909135e-08 2.2168502533497035e-07  0.
-2.8526929703940156e-08 1.9179008548857553e-07  0.
-4.181737425704151e-08 1.5818886581790716e-07  0.
-1.0018917012007319e-07 1.750081322420788e-07  0.
0.0 9.296687038242925e-07  0.
-1.6027351373549935e-17 9.296687038190394e-07  0.
-1.9482620765237647e-16 9.296687037463949e-07  0.
-2.075916790189005e-15 9.296687029227655e-07  0.
-1.929832206035869e-14 9.296686947470535e-07  0.
-1.5508307723839463e-13 9.296686243298458e-07  0.
-1.0672705740314471e-12 9.296681031159386e-07  0.
-6.2358796748931294e-12 9.296648185470773e-07  0.
-3.0740304798466294e-11 9.296473341396077e-07  0.
-1.276527094698361e-10 9.295690280504589e-07  0.
-4.489090579211943e-10 9.292732991362876e-07  0.
-1.3524128127602237e-09 9.283224444983458e-07  0.
-3.5374920445445414e-09 9.256830531857029e-07  0.
-8.12797966577568e-09 9.192808529225615e-07  0.
-1.6592485498383115e-08 9.055474105402382e-07  0.
-3.037371368534351e-08 8.792369100559689e-07  0.
-5.032032437541691e-08 8.338135771027372e-07  0.
-7.618738167051607e-08 7.627470318541598e-07  0.
-1.0809856602025963e-07 6.633270099785321e-07  0.
-1.6203506717290562e-07 5.583666867439074e-07  0.
-3.656099761331141e-07 6.32781082908644e-07  0.
0.0 2.4890937690361655e-06  0.
-3.007911169438119e-17 2.489093769027339e-06  0.
-3.782672698685438e-16 2.489093768901782e-06  0.
-4.1842345101211135e-15 2.4890937674255624e-06  0.
-4.053413420298932e-14 2.4890937521766443e-06  0.
-3.407827473796941e-13 2.489093614963876e-06  0.
-2.4628543069142325e-12 2.4890925497487526e-06  0.
-1.515633454392286e-11 2.4890854858670197e-06  0.
-7.877321943954507e-11 2.489045844893796e-06  0.
-3.4407153342027605e-10 2.4888589346548512e-06  0.
-1.264191203202305e-09 2.488120116460807e-06  0.
-3.94017379288548e-09 2.485658991312139e-06  0.
-1.0559192427674465e-08 2.4786649732001572e-06  0.
-2.46583870212403e-08 2.461459755765305e-06  0.
-5.078475313839251e-08 2.424360254148751e-06  0.
-9.327834683793377e-08 2.35339630939742e-06  0.
-1.543432426257139e-07 2.2318422715327783e-06  0.
-2.33144790811831e-07 2.0444694215940695e-06  0.
-3.3248847290959665e-07 1.7912120425379925e-06  0.
-5.0861973832341e-07 1.557818724939771e-06  0.
-1.0596632113124476e-06 1.8215064119964793e-06  0.
0.0 5.093532227554958e-06  0.
-5.226752351173789e-17 5.093532227541427e-06  0.
-6.767293483606436e-16 5.093532227344234e-06  0.
-7.728285324681975e-15 5.09353222495319e-06  0.
-7.753532420404325e-14 5.0935321994005534e-06  0.
-6.773351636290126e-13 5.093531960747871e-06  0.
-5.1028806990573875e-12 5.093530031412199e-06  0.
-3.282314468621523e-11 5.0935166693180226e-06  0.
-1.7853069231598572e-10 5.093438219584188e-06  0.
-8.148329103035375e-10 5.093051493631098e-06  0.
-3.1105317848726493e-09 5.091461075157583e-06  0.
-9.971165828030053e-09 5.086005482565865e-06  0.
-2.7158842095833944e-08 5.070261302137309e-06  0.
-6.380640835987023e-08 5.03146921924073e-06  0.
-1.3102040461304272e-07 4.9486946463090866e-06  0.
-2.3829672083321365e-07 4.7936640217382e-06  0.
-3.8852365510205186e-07 4.536143305350083e-06  0.
-5.782506958255467e-07 4.1566000020019e-06  0.
-8.228307905248239e-07 3.687364856995955e-06  0.
-1.2747106032657586e-06 3.385403549217265e-06  0.
-2.3897598990514614e-06 4.10935163668949e-06  0.
0.0 7.971073363424834e-06  0.
-8.435908369172973e-17 7.971073363405986e-06  0.
-1.1192051890030742e-15 7.97107336312453e-06  0.
-1.3130392670383294e-14 7.971073359620858e-06  0.
-1.3568060493033716e-13 7.971073321085896e-06  0.
-1.2241504789975414e-12 7.971072949688154e-06  0.
-9.550730706255531e-12 7.971069842851333e-06  0.
-6.376777727581364e-11 7.971047522623796e-06  0.
-3.604779605792229e-10 7.970911366893451e-06  0.
-1.7083000673505203e-09 7.970214193563771e-06  0.
-6.739097713778678e-09 7.967247688174263e-06  0.
-2.2108762962439677e-08 7.956818352364745e-06  0.
-6.079818083208113e-08 7.926449519678928e-06  0.
-1.42320388867422e-07 7.85229125889728e-06  0.
-2.881413428004637e-07 7.697864506456516e-06  0.
-5.116088210023574e-07 7.420309478060714e-06  0.
-8.103891469272258e-07 6.9851406917459385e-06  0.
-1.1722435159388515e-06 6.399748986489391e-06  0.
-1.6511153803789412e-06 5.815441918031602e-06  0.
-2.5424297785600787e-06 5.815154322198792e-06  0.
-4.172233630204897e-06 7.28829837291988e-06  0.
0.0 1.0230083766860166e-05  0.
-1.2698258024247425e-16 1.0230083766836033e-05  0.
-1.7198401712872087e-15 1.0230083766468944e-05  0.
-2.0636703385823388e-14 1.0230083761798938e-05  0.
-2.185680831815893e-13 1.023008370919499e-05  0.
-2.025751731404223e-12 1.0230083188806982e-05  0.
-1.627220014052619e-11 1.023007871047841e-05  0.
-1.120797591328885e-10 1.0230045543002324e-05  0.
-6.543861363619678e-10 1.02298366549024e-05  0.
-3.2011271856393948e-09 1.0228732356822683e-05  0.
-1.2985858062889739e-08 1.0223895423989598e-05  0.
-4.3425487523036406e-08 1.02065334128341e-05  0.
-1.200035315968582e-07 1.0155712061593078e-05  0.
-2.777280970311987e-07 1.003364755190623e-05  0.
-5.488352236222436e-07 9.788906720144432e-06  0.
-9.418616647695869e-07 9.372666203637545e-06  0.
-1.4331471114917289e-06 8.772542491837258e-06  0.
-2.005005535450918e-06 8.078847095103604e-06  0.
-2.7826486714255535e-06 7.684830629618858e-06  0.
-4.134841280635331e-06 8.498547742927028e-06  0.
-5.86694113615748e-06 1.0586003367751112e-05  0.
0.0 1.2398835825153955e-05  0.
-1.7897804159970294e-16 1.2398835825125732e-05  0.
-2.4652919913134935e-15 1.2398835824689665e-05  0.
-3.0135407217787405e-14 1.2398835819042384e-05  0.
-3.257062286134938e-13 1.239883575417611e-05  0.
-3.0861744177550563e-12 1.2398835098656751e-05  0.
-2.5390663135603912e-11 1.2398829325305768e-05  0.
-1.7941850857890977e-10 1.2398785488695882e-05  0.
-1.0758469256636478e-09 1.239850208102743e-05  0.
-5.403531010032962e-09 1.2396963744134366e-05  0.
-2.2440480909696506e-08 1.2390060181629972e-05  0.
-7.624997560202231e-08 1.2364839776028075e-05  0.
-2.1119229667877072e-07 1.2290759205059354e-05  0.
-4.809489544834493e-07 1.2116368267156811e-05  0.
-9.205269593789557e-07 1.1783106791850052e-05  0.
-1.5186321084301858e-06 1.1254882278586087e-05  0.
-2.217462764562116e-06 1.0569658381440866e-05  0.
-3.030829640712512e-06 9.949869417768421e-06  0.
-4.169208520528209e-06 1.0046238854432737e-05  0.
-5.821665404505815e-06 1.1610074809634062e-05  0.
-7.359397361736653e-06 1.3465734104647294e-05  0.
0.0 1.4982462292714888e-05  0.
-2.3642393316207704e-16 1.4982462292685207e-05  0.
-3.3008054877501187e-15 1.4982462292221265e-05  0.
-4.0951665854389317e-14 1.4982462286125285e-05  0.
-4.4983294001699205e-13 1.4982462214991757e-05  0.
-4.338135020572964e-12 1.4982461483679915e-05  0.
-3.63789516989088e-11 1.498245492156848e-05  0.
-2.6237306678362557e-10 1.4982404087842658e-05  0.
-1.6072311619372126e-09 1.4982068424677913e-05  0.
-8.246059558289327e-09 1.4980207018917292e-05  0.
-3.4906687765462787e-08 1.4971685442183885e-05  0.
-1.201775455362155e-07 1.4940087529201937e-05  0.
-3.332203940951517e-07 1.4846997897543987e-05  0.
-7.456776911060659e-07 1.4632144003192903e-05  0.
-1.3769016568597221e-06 1.4242933830073912e-05  0.
-2.181573387711841e-06 1.367696555635349e-05  0.
-3.094451069057585e-06 1.3033671557121123e-05  0.
-4.196261046410377e-06 1.268433552707862e-05  0.
-5.759682247751475e-06 1.331173916618265e-05  0.
-7.487747403973641e-06 1.4808845895250114e-05  0.
-8.896380892122436e-06 1.5668083767863044e-05  0.
0.0 1.7293927829452244e-05  0.
-2.931203501219578e-16 1.7293927829424763e-05  0.
-4.134623113953534e-15 1.729392782899103e-05  0.
-5.18806954675593e-14 1.729392782322883e-05  0.
-5.769622069982643e-13 1.729392775518284e-05  0.
-5.639418816669697e-12 1.7293927046448344e-05  0.
-4.7984294982255014e-11 1.7293920596496294e-05  0.
-3.5150613989738553e-10 1.729386986600965e-05  0.
-2.1886473948265232e-09 1.729352945983426e-05  0.
-1.1413913866534816e-08 1.7291610549064093e-05  0.
-4.903761668618189e-08 1.728268888558561e-05  0.
-1.705775181407525e-07 1.724921289226534e-05  0.
-4.7325295606732235e-07 1.7150299384158452e-05  0.
-1.042159667757228e-06 1.6925738202702262e-05  0.
-1.8580018689076621e-06 1.653980064855196e-05  0.
-2.8362188670394446e-06 1.6033334473319623e-05  0.
-3.97574401937945e-06 1.5555917145689336e-05  0.
-5.384857752653096e-06 1.553153871668228e-05  0.
-7.1958483360288396e-06 1.6400719609590868e-05  0.
-8.791348117995643e-06 1.7244701194091756e-05  0.
-1.0033916591818435e-05 1.7531825124867302e-05  0.
0.0 1.9667782992575426e-05  0.
-3.415300927864953e-16 1.9667782992554128e-05  0.
-4.852711718077862e-15 1.9667782992215474e-05  0.
-6.137941790233644e-14 1.966778298768217e-05  0.
-6.885607205931087e-13 1.9667782933697434e-05  0.
-6.794206562093941e-12 1.9667782366268602e-05  0.
-5.840528005688477e-11 1.9667777150923533e-05  0.
-4.3256540410278525e-10 1.9667735692166756e-05  0.
-2.7245444073192927e-09 1.9667454345949125e-05  0.
-1.4373973728829972e-08 1.9665849983389437e-05  0.
-6.241203339624357e-08 1.9658308501816683e-05  0.
-2.1873656228331773e-07 1.9629764640760663e-05  0.
-6.072032910995863e-07 1.9545208220191062e-05  0.
-1.320743447541187e-06 1.9355464276483222e-05  0.
-2.2875631916549503e-06 1.904337779062335e-05  0.
-3.385008671901465e-06 1.8678831432800872e-05  0.
-4.728784136924104e-06 1.8426059896357272e-05  0.
-6.365814580052783e-06 1.8578658517866346e-05  0.
-8.001179568625176e-06 1.923255346516867e-05  0.
-9.45151615406435e-06 1.9596422288564106e-05  0.
-1.058109081504571e-05 2.003671717176442e-05  0.
0.0 2.2078956882971843e-05  0.
-3.7421138926412936e-16 2.2078956882960198e-05  0.
-5.340274178135921e-15 2.2078956882774424e-05  0.
-6.786766541281359e-14 2.2078956880275805e-05  0.
-7.652925565581586e-13 2.2078956850369352e-05  0.
-7.59390474449106e-12 2.207895653428076e-05  0.
-6.567812807094924e-11 2.207895361159285e-05  0.
-4.896116372673151e-10 2.2078930227492946e-05  0.
-3.105039068628203e-09 2.2078770451457245e-05  0.
-1.6494750541028378e-08 2.207785291005386e-05  0.
-7.207670237903022e-08 2.2073510672937047e-05  0.
-2.5376791034660706e-07 2.2056985205810278e-05  0.
-7.047802648550749e-07 2.2007923807498602e-05  0.
-1.5215512073817257e-06 2.189852741397625e-05  0.
-2.5866679363021946e-06 2.1723809719726665e-05  0.
-3.745441984297948e-06 2.1539014287940522e-05  0.
-5.204697559552886e-06 2.1458100479083658e-05  0.
-6.939143932955242e-06 2.159381974888868e-05  0.
-8.340009432731851e-06 2.1837921212944443e-05  0.
-9.698646166420978e-06 2.2014650962794383e-05  0.
-1.0933676442567523e-05 2.2420291360874858e-05  0.
0.0 2.444999999999996e-05  0.
-3.8576573896374125e-16 2.444999999999996e-05  0.
-5.513051649496677e-15 2.444999999999996e-05  0.
-7.01736984024996e-14 2.444999999999996e-05  0.
-7.926553955516401e-13 2.444999999999996e-05  0.
-7.88011468610882e-12 2.444999999999996e-05  0.
-6.829129006480568e-11 2.444999999999996e-05  0.
-5.101954770372665e-10 2.444999999999996e-05  0.
-3.242947382033208e-09 2.444999999999996e-05  0.
-1.726695848510775e-08 2.444999999999996e-05  0.
-7.561124028520044e-08 2.444999999999996e-05  0.
-2.6662419495007536e-07 2.444999999999996e-05  0.
-7.406335491935003e-07 2.444999999999996e-05  0.
-1.59500890761487e-06 2.444999999999996e-05  0.
-2.6942220066891676e-06 2.444999999999996e-05  0.
-3.870024633217238e-06 2.444999999999996e-05  0.
-5.35723052007916e-06 2.444999999999996e-05  0.
-7.110584090766967e-06 2.444999999999996e-05  0.
-8.475403926989415e-06 2.444999999999996e-05  0.
-9.774917483086515e-06 2.444999999999996e-05  0.
-1.1084625561252678e-05 2.444999999999996e-05  0.
</DataArray>
<DataArray type="Float64" Name="sigma_xx" NumberOfComponents="1" format="ascii" >
0.11727472326583661 
0.11727472326583661 
0.11727472326583661 
0.11727473436806686 
0.11727340210043731 
0.11726876136819438 
0.11725553861197109 
0.11721950077259176 
0.11713214842501425 
0.11693749302210672 
0.11653377152143203 
0.11575480574066428 
0.1143536487724361 
0.11199116078941525 
0.10824267038245235 
0.10263361271967139 
0.09470140227563204 
0.08407194940218685 
0.07034560711716151 
0.04811950837790844 
0.03359195144270187 
0.83780662407662 
0.8378065463610083 
0.837806174436295 
0.8378050753155006 
0.8377991134178584 
0.8377772364731582 
0.8377083970945163 
0.837514158025243 
0.8370185322625898 
0.8358623182491696 
0.8333802259397058 
0.828446994338705 
0.819328033196953 
0.8035833054531591 
0.7780987965055883 
0.7393160972313237 
0.683684348024016 
0.6082583103861336 
0.5101407185570392 
0.3566651918252005 
0.25833516437145926 
9.284420832145198 
9.284420610100593 
9.284418611699149 
9.284409585585959 
9.284368468476242 
9.28420855750289 
9.283668539472597 
9.282049384662368 
9.277693518994209 
9.26707043324981 
9.24339210173208 
9.194808470169843 
9.102522469106585 
8.93943949420439 
8.670246054442995 
8.25377106106195 
7.648106647994975 
6.817556402749501 
5.725959889568697 
4.004192993845022 
2.898680551144393 
89.89738201625738 
89.89738098930108 
89.89737274034401 
89.89732548370097 
89.8970900997664 
89.89609474596702 
89.89246094714962 
89.88083098349084 
89.84775281550836 
89.76320476916652 
89.56706633589381 
89.15082959637385 
88.33726906076753 
86.86456841600074 
84.3839252973044 
80.48065527899159 
74.72421221232925 
66.73815539648406 
56.12368716434444 
39.17025282185181 
28.23954159958396 
757.4098699780761 
757.40986616446 
757.4098340845657 
757.4096262674688 
757.4084854078397 
757.4031960000391 
757.3822661421923 
757.3104500613324 
757.0938356515898 
756.5118297359061 
755.1039798103784 
752.0089958967799 
745.7785277942273 
734.2179238284394 
714.3406870052657 
682.5264470072809 
634.9457361304321 
568.1625878023453 
478.3476988096112 
332.95136691868777 
238.79260771519907 
5489.338833386535 
5489.338821179633 
5489.338709169231 
5489.337916980694 
5489.333168956498 
5489.309136680329 
5489.205951725306 
5488.825887717262 
5487.607241494439 
5484.160700564009 
5475.455940573413 
5455.622387587342 
5414.489532537535 
5336.27522119051 
5199.05517677721 
4975.787473587843 
4637.369177001858 
4157.038763138997 
3503.1476785185578 
2429.2873802511654 
1730.6233908609406 
33756.84109140352 
33756.8410559541 
33756.840708504256 
33756.83806094431 
33756.82089907238 
33756.726751821276 
33756.28982716371 
33754.56316882518 
33748.68108633188 
33731.16813718545 
33685.01422034152 
33576.097258328205 
33343.689452011706 
32891.46386089013 
32083.33433243059 
30749.008988170666 
28702.792036361378 
25769.88153158709 
21728.17243590307 
14989.69206365774 
10584.450667083796 
173235.37056596056 
173235.37047283506 
173235.36950628043 
173235.36165213533 
173235.3071135228 
173234.98562111234 
173233.38295022742 
173226.61361933162 
173202.17547440727 
173125.77262693358 
172916.19231418474 
172405.48373469716 
171287.8911459436 
169070.69211460894 
165050.22725560307 
158339.80571944566 
147966.35693094245 
132995.06447796978 
112123.61168712321 
76785.67693082946 
53573.25461736726 
726677.4808402874 
726677.4806162444 
726677.4781832739 
726677.4572847909 
726677.3031960824 
726676.335511178 
726671.191793987 
726648.0956889391 
726560.1050243538 
726272.5781024656 
725455.5986744817 
723411.3150369313 
718851.2939245881 
709689.1202632181 
692948.820951819 
664907.025075506 
621508.7519564675 
558798.1558196867 
470518.4835349456 
318817.13297426933 
218733.8574261731 
2425597.514709831 
2425597.5142159485 
2425597.50863554 
2425597.458344563 
2425597.067736162 
2425594.475341308 
2425579.891612719 
2425510.7090817066 
2425233.9312228467 
2424293.433971702 
2421544.2431772533 
2414534.396466999 
2398745.254822909 
2366946.4043416292 
2309083.0028404444 
2212986.6170089543 
2065920.2731029494 
1855340.2000620188 
1557179.660086399 
1038394.8490421481 
695032.9345696778 
6216411.125201557 
6216411.124200074 
6216411.112478701 
6216411.0023765955 
6216410.107928825 
6216403.880622437 
6216367.070931728 
6216183.762744701 
6215417.705526136 
6212724.469250403 
6204679.919317209 
6183974.245649033 
6137420.4030722035 
6044796.208563859 
5879742.353135817 
5613246.230111946 
5218233.640572382 
4668044.743402684 
3890275.8789364733 
2528642.493395865 
1627348.8116346926 
11684619.603511233 
11684619.601635538 
11684619.579011546 
11684619.35880455 
11684617.499589978 
11684604.011997504 
11684520.806511074 
11684088.556943974 
11682211.68574885 
11675417.088368693 
11654804.169921648 
11601745.52039 
11484163.595631843 
11256964.914023012 
10869099.350337368 
10277005.224386934 
9454698.85588266 
8375263.195454069 
6871224.533012779 
4266175.352911143 
2556465.895024105 
15391720.223188661 
15391720.219934968 
15391720.179669462 
15391719.775668716 
15391716.250710241 
15391689.766025236 
15391520.297086978 
15390607.273843043 
15386509.122337772 
15371297.160344725 
15324648.45070977 
15205531.526837934 
14948663.75096352 
14474872.090816455 
13719501.742175505 
12666168.475155845 
11359438.160822116 
9818826.248696204 
7743393.940952478 
4355856.584415127 
2210634.229432177 
14419817.747911174 
14419817.742663205 
14419817.676277291 
14419816.99280091 
14419810.860799365 
14419763.395939287 
14419450.085438477 
14417708.713293169 
14409665.676180549 
14379161.716516476 
14284906.088977527 
14047508.962683339 
13555106.864999544 
12703226.014034562 
11467225.42233128 
9954927.690835321 
8371699.497187557 
6781429.591553894 
4724465.53084625 
1967364.7498425732 
457337.986338621 
12425193.409264607 
12425193.401362728 
12425193.299534354 
12425192.228177557 
12425182.388349101 
12425104.29249753 
12424575.099254481 
12421555.222076407 
12407261.794524401 
12352040.836114597 
12180446.260261225 
11755511.83976834 
10915791.18618023 
9578234.009595256 
7859018.373676574 
6100164.953631501 
4627400.948058685 
3335135.009152324 
1573459.1949731898 
57393.15184813657 
-350800.6104403309 
13338519.981909942 
13338519.970776781 
13338519.825091328 
13338518.264645271 
13338503.653381662 
13338385.270484034 
13337565.534135256 
13332784.205491915 
13309686.729977319 
13219052.395031866 
12936212.73259984 
12248341.483491141 
10961999.23698815 
9113414.711867431 
7073678.851410983 
5409273.567560866 
4311184.046281056 
3129201.473667464 
1301610.8522536287 
62097.4254205817 
-97265.36927367172 
13739908.005803298 
13739907.991100375 
13739907.796318408 
13739905.679913694 
13739885.554449674 
13739719.780844523 
13738551.82087232 
13731618.629572071 
13697568.696908046 
13562251.582314728 
13138605.825306054 
12125978.059493091 
10338180.702514634 
8065583.389451021 
5997254.530310532 
4651671.070917704 
3770157.3171780324 
2173799.0978594106 
233490.7817653831 
-714545.2105903943 
-895333.9152970212 
13149636.52813071 
13149636.509902002 
13149636.26612597 
13149633.588216 
13149607.82074904 
13149392.878501693 
13147858.27950836 
13138625.024047717 
13092698.219403327 
12908369.98176115 
12329846.743722314 
10967396.774077788 
8688323.36766414 
6158157.958498655 
4357698.4709686125 
3277201.5654785214 
2119659.5100198477 
161440.35475742823 
-1293221.3189042606 
-837054.3983527843 
-188250.77286907157 
13430138.400388733 
13430138.379150726 
13430138.093236445 
13430134.928076787 
13430104.217450881 
13429845.750867363 
13427983.048703257 
13416668.335322607 
13359877.220504489 
13130327.276755583 
12408570.091903768 
10727772.121864991 
8037631.113562237 
5418836.853954628 
4053019.557493034 
3025158.5356909717 
1218714.5448569965 
-265093.29110418435 
-772060.5227270023 
193455.09233961493 
1256394.835481226 
13422227.310960583 
13422227.287690347 
13422226.97317389 
13422223.47533403 
13422189.368246822 
13421900.792574804 
13419809.483411422 
13407033.775153043 
13342562.412217977 
13080859.119311454 
12257091.74768526 
10352005.621841796 
7389837.667569043 
4779565.513785339 
3806533.882057775 