<?xml version="1.0"?>
<VTKFile type="UnstructuredGrid" version="0.1" byte_order="LittleEndian" compressor="vtkZLibDataCompressor">
<UnstructuredGrid>
<Piece NumberOfPoints="441" NumberOfCells="400">
<PointData>
<DataArray type="Float64" Name="displacement" NumberOfComponents="3" format="ascii" >
0.0 8.560285679456638e-30  0.
1.973748123314141e-29 1.0538780566468521e-29  0.
2.3669273965412578e-29 -5.389517380984002e-30  0.
1.568457716017652e-29 -3.366469815622013e-30  0.
6.329461820597515e-30 -5.7764664899436715e-30  0.
-5.574464776847885e-31 -1.1310104989459522e-30  0.
-7.709863742576606e-30 -6.017979337141719e-30  0.
-3.451440640344512e-29 -2.071475994422205e-29  0.
-1.1894581927430668e-28 -6.411679577519115e-29  0.
-4.433324938868574e-28 -2.583897245392592e-28  0.
-1.63017888317759e-27 -9.298279257117765e-28  0.
-5.469120719652036e-27 -2.886839781759686e-27  0.
-1.919997246023272e-26 -1.1283335862088794e-26  0.
-4.5971596829086714e-26 -1.470650392113382e-26  0.
-9.520210759529071e-26 -3.6620757580248514e-26  0.
-1.4802027437427594e-25 -1.2545189656302126e-26  0.
-1.8760763696634193e-25 -2.86499069289257e-26  0.
-2.138613906300214e-25 2.4588023675867884e-28  0.
-2.153490927430108e-25 4.638349652350665e-27  0.
-1.4942754819020926e-25 4.070392338295489e-26  0.
-9.934975302894621e-26 1.2476858436896235e-25  0.
0.0 2.224918741153178e-27  0.
3.398058585147987e-27 8.527034580035915e-28  0.
2.9426953063974644e-27 -7.6434387446017155e-28  0.
1.2703355934661843e-27 -1.1354487906847308e-27  0.
5.761107745953655e-29 -6.668924752640842e-29  0.
-3.5495328394074753e-29 -3.3440405872768186e-29  0.
-2.9882568136914243e-28 -2.368847060666999e-28  0.
-2.1138780584935418e-27 -1.5929548679868057e-27  0.
-2.4097583385390448e-26 -2.128835011033344e-26  0.
-1.3353845586743178e-25 -6.095562772384264e-26  0.
-2.083443810430526e-25 -1.569380162777217e-26  0.
-3.5912742844998465e-25 -1.6730124591664666e-25  0.
-1.4801559199733854e-24 -1.0037147269650362e-24  0.
-7.662993781817399e-24 -3.86495993896177e-24  0.
-1.3336722310906353e-23 -1.4070185095468954e-24  0.
-2.3260325844547582e-23 -6.151489503541363e-24  0.
-2.700202387312962e-23 2.2495240356793527e-24  0.
-3.1505118865377386e-23 -6.637191348827161e-24  0.
-4.265021531150255e-23 -1.2823503136773517e-24  0.
-3.4800117243705075e-23 2.1041853482500814e-24  0.
-3.551981345870026e-23 3.2520237164065465e-23  0.
0.0 5.972805387202898e-20  0.
2.681194032763456e-25 5.96725052718951e-20  0.
2.73341906849961e-25 5.967187725353698e-20  0.
9.508109905081929e-27 5.967214323068726e-20  0.
-1.4885686852387806e-28 5.967215504657853e-20  0.
-2.0625270821823847e-27 5.967215318360619e-20  0.
-1.687672799795032e-26 5.967214185056701e-20  0.
-1.5186684713611364e-25 5.967202891280909e-20  0.
-8.962717932609709e-25 5.967145402404132e-20  0.
-8.307263183828285e-23 5.960758006326882e-20  0.
-9.429697569039468e-23 5.914465919759734e-20  0.
-7.713805060172577e-23 5.898861334762998e-20  0.
-1.400809089895328e-22 5.893866596875908e-20  0.
-5.63803826327687e-22 5.863829628154666e-20  0.
-1.2838659722710431e-21 5.588755083548636e-20  0.
-2.147730319028181e-21 5.3623325609929123e-20  0.
-2.2280585238524046e-21 4.7651405140867873e-20  0.
-3.1214368302353387e-21 4.384398967279367e-20  0.
-4.7341791609448495e-21 3.5924282984684815e-20  0.
-4.99489656405774e-21 2.6186563153120698e-20  0.
-1.4059549857047352e-20 2.6945114993062932e-20  0.
0.0 2.0068758011138506e-18  0.
3.4381446080976115e-23 2.0064189263033454e-18  0.
4.549840786402151e-25 2.0064387518993763e-18  0.
-8.847242054459075e-26 2.0064399034134486e-18  0.
-2.2244985148595742e-27 2.006439824474702e-18  0.
-5.60446762307472e-26 2.0064397836855434e-18  0.
-1.6180803572611112e-24 2.0064384150970945e-18  0.
-8.955179976103695e-24 2.006433999655968e-18  0.
-6.639243270409735e-23 2.0063909717417206e-18  0.
-5.100719338352039e-22 2.006245537832959e-18  0.
-1.7052166875679476e-21 2.0045487312331717e-18  0.
-3.8041755963547e-21 1.999113221323191e-18  0.
-9.991483676865975e-21 1.9860085338016692e-18  0.
-1.9246048471523415e-20 1.957893349411777e-18  0.
-2.9797783867771884e-20 1.915148510213785e-18  0.
-5.1457916042188474e-20 1.836640824309722e-18  0.
-7.646417679673007e-20 1.7210251545603002e-18  0.
-1.0518815167021775e-19 1.5473343214233139e-18  0.
-1.4047402560766208e-19 1.319230721664187e-18  0.
-1.7544839511233963e-19 1.0403850070066944e-18  0.
-5.577433843133921e-19 1.0600616404514385e-18  0.
0.0 5.349558510165876e-17  0.
-1.0557626527770859e-22 5.3496579393227494e-17  0.
-1.2861029465763152e-23 5.349663290396158e-17  0.
2.373276675875444e-25 5.349662062904019e-17  0.
-1.4059464095198006e-25 5.349662064150361e-17  0.
-2.1915628172939672e-24 5.349661870026949e-17  0.
-3.169608070397877e-23 5.3496588631965724e-17  0.
-6.688388657062399e-22 5.34956243275141e-17  0.
-3.321200324271318e-21 5.349191495282727e-17  0.
-1.442834524315913e-20 5.347385761886798e-17  0.
-3.882503449075348e-20 5.3426773326094957e-17  0.
-9.732771355115097e-20 5.3298124077830584e-17  0.
-2.1511699126634395e-19 5.3017691711749155e-17  0.
-4.2541331684817354e-19 5.2434321883180316e-17  0.
-7.711077727888571e-19 5.132791765641675e-17  0.
-1.2862747566705391e-18 4.9428648045111476e-17  0.
-1.9786962133192706e-18 4.640977912573793e-17  0.
-2.8209037872351155e-18 4.1968600808478545e-17  0.
-3.759391532498658e-18 3.587537867475208e-17  0.
-4.9208058174005076e-18 2.8346010712401275e-17  0.
-1.5321275214866507e-17 2.886185790768641e-17  0.
0.0 1.2547794063080268e-15  0.
-4.781171861668721e-22 1.2547746287810938e-15  0.
2.1217699609037517e-23 1.2547741584179975e-15  0.
-4.646131314102828e-24 1.2547741484391915e-15  0.
-9.661372528535597e-25 1.2547741434185642e-15  0.
-3.9739181943037115e-23 1.2547741020974497e-15  0.
-1.141314827603495e-21 1.2547729358323916e-15  0.
-1.3599305405234768e-20 1.2547596591835841e-15  0.
-6.384192457396806e-20 1.254689381972165e-15  0.
-2.2836988393390536e-19 1.2544381698900896e-15  0.
-6.961167931587045e-19 1.2536155400751647e-15  0.
-1.824193230339839e-18 1.251362532749363e-15  0.
-4.249257408591724e-18 1.2458765307855446e-15  0.
-8.853606038835333e-18 1.2340055737310527e-15  0.
-1.669347130418347e-17 1.2107508867562288e-15  0.
-2.8718029150811874e-17 1.1693083480379974e-15  0.
-4.5357800369975944e-17 1.1015077024238773e-15  0.
-6.60731156206298e-17 9.993307838667436e-16  0.
-8.935654792980505e-17 8.569816844223724e-16  0.
-1.1874926379057308e-16 6.792885991939416e-16  0.
-3.692266745507282e-16 6.941682928143816e-16  0.
0.0 2.5710433294983787e-14  0.
-1.6683600193405923e-21 2.5710440698873322e-14  0.
-4.459385084416607e-22 2.5710441841282266e-14  0.
4.846504053907513e-24 2.571044084661867e-14  0.
-6.777028480677846e-24 2.5710440832740603e-14  0.
-7.738737432728801e-22 2.571043954190159e-14  0.
-1.4200245952899147e-20 2.5710426980431864e-14  0.
-1.3616897612199127e-19 2.57103046568964e-14  0.
-7.205985193598683e-19 2.5709602014467154e-14  0.
-2.9922100753087395e-18 2.5706431725043955e-14  0.
-1.008484206714323e-17 2.569510386113341e-14  0.
-2.8966794241795126e-17 2.5660831376981856e-14  0.
-7.20355272706167e-17 2.5571386310396933e-14  0.
-1.586587196783798e-16 2.5365663410251867e-14  0.
-3.1263749370340336e-16 2.4943181687512676e-14  0.
-5.575726356808142e-16 2.415982073911316e-14  0.
-9.059440814674457e-16 2.2838171719628177e-14  0.
-1.3502226344519566e-15 2.0795904968878136e-14  0.
-1.8577344741740866e-15 1.7895466899512904e-14  0.
-2.509137414527059e-15 1.4234001561932493e-14  0.
-7.783990603164682e-15 1.4601471845727798e-14  0.
0.0 4.555959949599136e-13  0.
-5.424607038230428e-21 4.555959894179491e-13  0.
4.006289097889417e-22 4.555959865264746e-13  0.
-5.4940259399761776e-24 4.555959876492633e-13  0.
-5.948725786601416e-23 4.555959875781598e-13  0.
-4.501722480603534e-21 4.555959845091654e-13  0.
-8.838922061970802e-20 4.555959186454064e-13  0.
-8.79921483132873e-19 4.555952318534111e-13  0.
-6.225206226960588e-18 4.555896915917724e-13  0.
-3.066538089478922e-17 4.555596780465579e-13  0.
-1.1967695788523008e-16 4.55433740740894e-13  0.
-3.799523467466417e-16 4.550074313476847e-13  0.
-1.0284196976034393e-15 4.537895089047776e-13  0.
-2.4118011780972238e-15 4.5078570341776553e-13  0.
-5.007925570464606e-15 4.44259765479522e-13  0.
-9.296149955051514e-15 4.3160924645012955e-13  0.
-1.5607481481328112e-14 4.0949098600102617e-13  0.
-2.3845398542717486e-14 3.743430129292439e-13  0.
-3.3463126650516496e-14 3.2334824901361573e-13  0.
-4.601662576869728e-14 2.5819857819160373e-13  0.
-1.422346517913227e-13 2.660659088950727e-13  0.
0.0 6.900623291227566e-12  0.
-3.421827058736119e-21 6.900623287127885e-12  0.
7.907540362540831e-22 6.900623288690917e-12  0.
-2.52981231504907e-22 6.9006232879174395e-12  0.
-2.204666018094685e-22 6.900623287377115e-12  0.
-2.381820317395598e-20 6.9006232672335096e-12  0.
-3.680848756256882e-19 6.9006230397271465e-12  0.
-4.258392859853355e-18 6.90062007466484e-12  0.
-3.762428332267003e-17 6.900590832236332e-12  0.
-2.4361562858810227e-16 6.90037648725118e-12  0.
-1.1149563741469425e-15 6.899294182983701e-12  0.
-4.06649904395724e-15 6.8950386807601575e-12  0.
-1.2092976321512942e-14 6.881505501343773e-12  0.
-3.070923945164684e-14 6.845147279294432e-12  0.
-6.756538007304425e-14 6.760818315847975e-12  0.
-1.3161184777222168e-13 6.5885958175233726e-12  0.
-2.2899890552969796e-13 6.275011132240369e-12  0.
-3.6012299462809725e-13 5.760618682605522e-12  0.
-5.16288011736521e-13 4.996313263329361e-12  0.
-7.249586153485192e-13 4.007605407506951e-12  0.
-2.2273177291896748e-12 4.152210211564324e-12  0.
0.0 8.811238359669293e-11  0.
1.0944644108910693e-21 8.811238360795602e-11  0.
1.7399883543757997e-22 8.81123836114089e-11  0.
-2.5802663053404816e-22 8.811238361149128e-11  0.
-1.924460459640139e-21 8.811238360943204e-11  0.
-7.715485691709447e-20 8.81123835736875e-11  0.
-1.2415357535868677e-18 8.811238287591758e-11  0.
-1.6372192027219446e-17 8.811237284263078e-11  0.
-1.7164473283249824e-16 8.811225594956393e-11  0.
-1.3739040192267739e-15 8.811120597895679e-11  0.
-8.077717711156339e-15 8.810419523351673e-11  0.
-3.4140267707583893e-14 8.807141417992545e-11  0.
-1.1561941210290043e-13 8.795134705498861e-11  0.
-3.202307689014795e-13 8.759465698639736e-11  0.
-7.584708676852482e-13 8.669855811613947e-11  0.
-1.5565553607668423e-12 8.475493211815375e-11  0.
-2.827880112439113e-12 8.10447666772207e-11  0.
-4.58620103255396e-12 7.473644043942368e-11  0.
-6.741875447641077e-12 6.5110382531248e-11  0.
-9.687396344002991e-12 5.249979812561673e-11  0.
-2.9503041657026716e-11 5.4759980474346155e-11  0.
0.0 9.329808060431994e-10  0.
-2.980404682007847e-21 9.329808060435533e-10  0.
1.4364974188087364e-22 9.329808060393212e-10  0.
-4.871742156497772e-23 9.329808060401583e-10  0.
-7.410557425375935e-21 9.3298080603671e-10  0.
-1.9969786752367772e-19 9.32980805946932e-10  0.
-3.561088531892396e-18 9.329808041949675e-10  0.
-5.2212839989781967e-17 9.329807760636116e-10  0.
-6.239808748760143e-16 9.329804047710028e-10  0.
-5.880603906336704e-15 9.329764957034317e-10  0.
-4.2213245455152605e-14 9.329448640652085e-10  0.
-2.2347491792906617e-13 9.32754173876318e-10  0.
-8.659929815693393e-13 9.319345278812275e-10  0.
-2.7028527480558238e-12 9.291582042132823e-10  0.
-6.924108916131636e-12 9.215059896903979e-10  0.
-1.5188296634628343e-11 9.036521458810176e-10  0.
-2.88762057281325e-11 8.676832594162725e-10  0.
-4.8609034807551266e-11 8.039542138954984e-10  0.
-7.334740394810645e-11 7.03804560316603e-10  0.
-1.0833080540780637e-10 5.710475697201586e-10  0.
-3.2535556831576697e-10 6.006253465154178e-10  0.
0.0 8.030755722246201e-09  0.
-2.8709314296805006e-21 8.030755722238935e-09  0.
-8.617651994219312e-22 8.030755722246246e-09  0.
-2.0381515564790342e-22 8.030755722244504e-09  0.
-1.859159377214864e-20 8.03075572223541e-09  0.
-4.666578077076318e-19 8.03075572205055e-09  0.
-8.886569407507084e-18 8.03075571820348e-09  0.
-1.4207721662691749e-16 8.030755651139105e-09  0.
-1.8809872329562755e-15 8.030754675523582e-09  0.
-2.0102755971026022e-14 8.030743105024196e-09  0.
-1.685312727571899e-13 8.03063419269726e-09  0.
-1.073456225613284e-12 8.029848556368552e-09  0.
-5.065446897835789e-12 8.025618616862093e-09  0.
-1.7841872025331235e-11 8.009055834969805e-09  0.
-5.084841822209645e-11 7.957642636482613e-09  0.
-1.1947195932805407e-10 7.827283528676725e-09  0.
-2.4062405690915515e-10 7.547227010114319e-09  0.
-4.205713519276957e-10 7.027675956281224e-09  0.
-6.549254308190491e-10 6.184403438650835e-09  0.
-9.962480617857407e-10 5.0563453541638824e-09  0.
-2.932865676799264e-09 5.376164128766603e-09  0.
0.0 5.4842045967483335e-08  0.
-4.0892740398333116e-21 5.4842045967475666e-08  0.
2.3893717513561958e-21 5.484204596747192e-08  0.
-1.125360678538716e-21 5.484204596747179e-08  0.
-3.856857126450875e-20 5.484204596745987e-08  0.
-9.76121601486439e-19 5.484204596711728e-08  0.
-1.9634722158469254e-17 5.48420459597004e-08  0.
-3.364883745191674e-16 5.48420458215589e-08  0.
-4.832908146305444e-15 5.4842043650406484e-08  0.
-5.699097803670111e-14 5.484201537528784e-08  0.
-5.387035546404503e-13 5.4841717171313375e-08  0.
-3.9683164237992506e-12 5.4839237325942624e-08  0.
-2.213866491763727e-11 5.482349639120154e-08  0.
-9.200297706051471e-11 5.47488115283726e-08  0.
-2.913884543380546e-10 5.4485474597510084e-08  0.
-7.495624066618082e-10 5.3745067749352334e-08  0.
-1.5985181146980238e-09 5.203702980244654e-08  0.
-2.92670723926091e-09 4.869703492786106e-08  0.
-4.698378820046558e-09 4.309183902786379e-08  0.
-7.403737297981771e-09 3.5578273611232514e-08  0.
-2.111538705157528e-08 3.8370821433251495e-08  0.
0.0 2.8828435358481426e-07  0.
-5.807059586669539e-21 2.8828435358481696e-07  0.
2.0328682991982075e-21 2.882843535848079e-07  0.
-1.1218304070066031e-21 2.8828435358480743e-07  0.
-7.157486694203971e-20 2.8828435358478853e-07  0.
-1.8430294299144795e-18 2.882843535842276e-07  0.
-3.884874147524253e-17 2.8828435357155676e-07  0.
-7.038738932191833e-16 2.8828435332288006e-07  0.
-1.0790286307029902e-14 2.8828434916556724e-07  0.
-1.375329750318209e-13 2.882842908917061e-07  0.
-1.427573650241779e-12 2.882836191402022e-07  0.
-1.1774774978881052e-11 2.8827739889617046e-07  0.
-7.50681525973238e-11 2.8823237131324534e-07  0.
-3.609926959604091e-10 2.8798496646623873e-07  0.
-1.3021095522059762e-09 2.8696791297115793e-07  0.
-3.6572534802676444e-09 2.837878544950785e-07  0.
-8.367945605468334e-09 2.758158431130408e-07  0.
-1.6002451788918845e-08 2.5934943010451693e-07  0.
-2.6610521623506894e-08 2.3080793559939494e-07  0.
-4.344779030034399e-08 1.9309993334785883e-07  0.
-1.1818880977013625e-07 2.123867086094826e-07  0.
0.0 1.1235205855621528e-06  0.
-4.383050748525973e-21 1.1235205855621586e-06  0.
2.0952137296565116e-21 1.1235205855621564e-06  0.
-2.0511227896104033e-21 1.123520585562159e-06  0.
-1.2457585668724616e-19 1.1235205855621223e-06  0.
-3.1631136862898734e-18 1.1235205855613124e-06  0.
-6.933151632494194e-17 1.1235205855421087e-06  0.
-1.3136670773787833e-15 1.1235205851492696e-06  0.
-2.121597642892493e-14 1.1235205782500312e-06  0.
-2.8758421176117154e-13 1.123520475749092e-06  0.
-3.2124028549832607e-12 1.1235192091480076e-06  0.
-2.8927135734404505e-11 1.1235064595400548e-06  0.
-2.047153151240044e-10 1.1234044458503953e-06  0.
-1.108164651725766e-09 1.1227736610659717e-06  0.
-4.502223130052372e-09 1.1198376082419252e-06  0.
-1.3847784176231195e-08 1.1096090446445998e-06  0.
-3.387414630389129e-08 1.081857912990316e-06  0.
-6.779066422940879e-08 1.0213319521548712e-06  0.
-1.1640364029647553e-07 9.140649599728675e-07  0.
-1.9701704387932724e-07 7.796791625831507e-07  0.
-4.971360953642183e-07 8.814263381458217e-07  0.
0.0 3.1112814318229775e-06  0.
-2.596097958192124e-21 3.1112814318229715e-06  0.
3.1433913809759467e-21 3.111281431822977e-06  0.
-4.147978952678352e-21 3.1112814318229745e-06  0.
-1.927098751023939e-19 3.1112814318229406e-06  0.
-4.956226527907563e-18 3.1112814318218768e-06  0.
-1.121214890496162e-16 3.1112814317962837e-06  0.
-2.201453243469255e-15 3.111281431254125e-06  0.
-3.7052203810979434e-14 3.1112814213518054e-06  0.
-5.271373095832616e-13 3.111281267310345e-06  0.
-6.2345909195222425e-12 3.111279257912683e-06  0.
-6.009201863544155e-11 3.111257676886925e-06  0.
-4.6092681135536137e-10 3.1110711666506115e-06  0.
-2.7390952126676704e-09 3.1098077438611052e-06  0.
-1.2283714591629059e-08 3.103299077480062e-06  0.
-4.110717610932369e-08 3.078384735232194e-06  0.
-1.0559029540473741e-07 3.007048442157612e-06  0.
-2.2042276110769798e-07 2.845315987771143e-06  0.
-3.8777255450541094e-07 2.560515922106625e-06  0.
-6.764844739337884e-07 2.2526708942828977e-06  0.
-1.5140223525102145e-06 2.644110259974798e-06  0.
0.0 5.965374048862165e-06  0.
-3.936556655033596e-22 5.965374048862157e-06  0.
3.731006052366043e-21 5.965374048862157e-06  0.
-4.852859941528893e-21 5.965374048862159e-06  0.
-2.6792949719253184e-19 5.9653740488621165e-06  0.
-7.114005194718728e-18 5.965374048860915e-06  0.
-1.6486377185203014e-16 5.965374048831184e-06  0.
-3.328178491451978e-15 5.965374048184455e-06  0.
-5.783737817351373e-14 5.96537403600206e-06  0.
-8.540825609485657e-13 5.9653738396100824e-06  0.
-1.0553474101026656e-11 5.965371167727507e-06  0.
-1.0712033471562674e-10 5.9653410190252044e-06  0.
-8.735736692602929e-10 5.965064537729905e-06  0.
-5.575073110668318e-09 5.96305692496943e-06  0.
-2.7050435013041307e-08 5.951850097700632e-06  0.
-9.736095368332273e-08 5.905368461255831e-06  0.
-2.6048282522779717e-07 5.765386089072956e-06  0.
-5.500323611675749e-07 5.45379248246905e-06  0.
-9.908944936096602e-07 4.941082864866677e-06  0.
-1.7328616269218227e-06 4.5823800413304965e-06  0.
-3.255176858840807e-06 5.607820342454224e-06  0.
0.0 8.409613110571722e-06  0.
9.128573167453734e-22 8.409613110571737e-06  0.
4.916362665382354e-21 8.40961311057173e-06  0.
-4.45332713532513e-21 8.40961311057173e-06  0.
-3.470577936275172e-19 8.409613110571692e-06  0.
-9.38050936691113e-18 8.409613110570524e-06  0.
-2.2148655517577113e-16 8.409613110540855e-06  0.
-4.565071655050446e-15 8.40961310988276e-06  0.
-8.125061637117855e-14 8.409613097198807e-06  0.
-1.2335232627552717e-12 8.409612887198495e-06  0.
-1.5743618676391542e-11 8.409609940550078e-06  0.
-1.6601375422621108e-10 8.40957544321956e-06  0.
-1.4162410032448984e-09 8.409245109632535e-06  0.
-9.52925280795196e-09 8.406717183210164e-06  0.
-4.908258423980539e-08 8.39172592277907e-06  0.
-1.8756479215303814e-07 8.325280901378163e-06  0.
-5.220117673427712e-07 8.114845785447891e-06  0.
-1.0964158634189506e-06 7.662525033259889e-06  0.
-1.9712064769840258e-06 7.062286597701672e-06  0.
-3.321952636740607e-06 7.0945051577540325e-06  0.
-5.019339486511294e-06 8.72412714246356e-06  0.
0.0 1.0597919943429021e-05  0.
-1.4978340288428832e-21 1.0597919943429018e-05  0.
-1.655087380173161e-21 1.0597919943429028e-05  0.
-1.3939155394830224e-20 1.0597919943429033e-05  0.
-4.210346243416582e-19 1.0597919943428992e-05  0.
-1.1419215213057138e-17 1.0597919943428047e-05  0.
-2.7299560385476487e-16 1.0597919943403756e-05  0.
-5.708955179393548e-15 1.0597919942857408e-05  0.
-1.0331063282861039e-13 1.0597919932160556e-05  0.
-1.5988206507756598e-12 1.0597919751834465e-05  0.
-2.08674449860031e-11 1.0597917167044698e-05  0.
-2.2590243176701763e-10 1.059788614797415e-05  0.
-1.987913207251929e-09 1.0597580017075314e-05  0.
-1.3875269246314086e-08 1.0595152740410303e-05  0.
-7.45687708991046e-08 1.0580109861944515e-05  0.
-2.9828725498764947e-07 1.0510010806695936e-05  0.
-8.617413688578608e-07 1.0278065213784536e-05  0.
-1.8109980336969104e-06 9.792282539809361e-06  0.
-3.1103186964376905e-06 9.37921321037611e-06  0.
-4.8250986892982365e-06 9.960820290586678e-06  0.
-6.074085577708988e-06 1.129246811593405e-05  0.
0.0 1.3102336608810074e-05  0.
-5.817971687982558e-22 1.310233660881008e-05  0.
1.3058246920746698e-21 1.310233660881008e-05  0.
-1.0385873001952941e-20 1.3102336608810083e-05  0.
-4.6843329245417e-19 1.3102336608810059e-05  0.
-1.2838683958574709e-17 1.3102336608809517e-05  0.
-3.092587824424205e-16 1.310233660879583e-05  0.
-6.522784755072021e-15 1.3102336608485223e-05  0.
-1.1919774263007217e-13 1.310233660234586e-05  0.
-1.8656086755646673e-12 1.3102336497698789e-05  0.
-2.4671230516126742e-11 1.3102334978690342e-05  0.
-2.71223812589268e-10 1.3102316470449226e-05  0.
-2.4306283063090763e-09 1.310213059050546e-05  0.
-1.733630437909894e-08 1.3100623756416486e-05  0.
-9.559087181968198e-08 1.3091038529424635e-05  0.
-3.9380634016066305e-07 1.3044881037520736e-05  0.
-1.1712047609113624e-06 1.2886987738491874e-05  0.
-2.4775433582155296e-06 1.2564673779957463e-05  0.
-3.952194657781747e-06 1.2431804937827577e-05  0.
-5.486193553547781e-06 1.3008373554138829e-05  0.
-6.76605332361566e-06 1.3420617763551733e-05  0.
0.0 1.5450000000000047e-05  0.
-5.7864832999884255e-21 1.5450000000000047e-05  0.
6.839290291901006e-21 1.5450000000000047e-05  0.
-1.126024897973724e-20 1.5450000000000047e-05  0.
-4.842895515796666e-19 1.5450000000000047e-05  0.
-1.3345697913577793e-17 1.5450000000000047e-05  0.
-3.2234216779672414e-16 1.5450000000000047e-05  0.
-6.817812531549308e-15 1.5450000000000047e-05  0.
-1.249925737573675e-13 1.5450000000000047e-05  0.
-1.9636141321469696e-12 1.5450000000000047e-05  0.
-2.6079883850512223e-11 1.5450000000000047e-05  0.
-2.8817242952491866e-10 1.5450000000000047e-05  0.
-2.598054972347429e-09 1.5450000000000047e-05  0.
-1.866431637932934e-08 1.5450000000000047e-05  0.
-1.0380099343320897e-07 1.5450000000000047e-05  0.
-4.320670339033224e-07 1.5450000000000047e-05  0.
-1.299553083354778e-06 1.5450000000000047e-05  0.
-2.7581321732596914e-06 1.5450000000000047e-05  0.
-4.231910546314514e-06 1.5450000000000047e-05  0.
-5.5323737203219955e-06 1.5450000000000047e-05  0.
-7.1427785678630346e-06 1.5450000000000047e-05  0.
</DataArray>
<DataArray type="Float64" Name="sigma_xx" NumberOfComponents="1" format="ascii" >
0.0 
0.0 
0.0 
0.0 
0.0 
0.0 
0.0 
0.0 
0.0 
0.0 
0.0 
0.0 
0.0 
0.0 
0.0 
0.0 
0.0 
0.0 
0.0 
0.0 
0.0 
0.0 
0.0 
0.0 
0.0 
0.0 
0.0 
0.0 
0.0 
0.0 
0.0 
0.0 
0.0 
0.0 
0.0 
0.0 
0.0 
0.0 
0.0 
0.0 
0.0 
0.0 
5.440092820663265e-06 
5.440092820663265e-06 
5.440092820663265e-06 
5.440092820663265e-06 
5.440092820663265e-06 
5.440092820663265e-06 
5.440092820663265e-06 
5.440092820663265e-06 
5.440092820663265e-06 
5.440092820663265e-06 
5.440092820663265e-06 
5.440092820663265e-06 
5.362377208939504e-06 
5.2846615972157434e-06 
5.212497100615108e-06 
4.979350265443825e-06 
4.507505479978134e-06 
3.896882816434298e-06 
3.3528735343679715e-06 
2.5257573810222303e-06 
1.9428902930940235e-06 
0.00014952483695651603 
0.00014952483695651603 
0.00014952483695651603 
0.00014952483695651603 
0.00014952483695651603 
0.00014952483695651603 
0.00014952483695651603 
0.00014944712134479227 
0.0001493694057330685 
0.00014937495684819163 
0.00014937495684819163 
0.00014884204979637156 
0.00014754308885756012 
0.00014553913629811172 
0.0001420030759646806 
0.00013583023594776472 
0.00012660428261312967 
0.00011365353103087722 
9.613421170229228e-05 
6.855072065548026e-05 
5.089262344881715e-05 
0.0035076164195402258 
0.0035076164195402258 
0.0035076164195402258 
0.0035076164195402258 
0.0035076164195402258 
0.0035076164195402258 
0.0035076164195402258 
0.0035073888238201776 
0.003506783752271757 
0.003505284951188513 
0.00350126594383937 
0.003490979727516218 
0.003468214604396279 
0.003424033279131321 
0.003344091670243187 
0.00320983795099039 
0.00300264257901972 
0.0027039759320501835 
0.0022969071089562467 
0.001638761348843331 
0.0012130962900869231 
0.07183937889010392 
0.07183937889010392 
0.07183937889010392 
0.07183937889010392 
0.07183937889010392 
0.07183937889010392 
0.07183908468100239 
0.07183751926653767 
0.07183100780849824 
0.07180859240563106 
0.07174245086893902 
0.07157243131494792 
0.071182720828844 
0.07037952998167893 
0.06887371228891934 
0.06628557147614342 
0.06218377479605405 
0.05615733433828039 
0.047828790927795226 
0.03414347693464491 
0.025245205925727973 
1.272155447651357 
1.272155447651357 
1.272155447651357 
1.272155447651357 
1.272155447651357 
1.2721552977712487 
1.2721531605919263 
1.2721398989778971 
1.2720744013705594 
1.2718152087032304 
1.270971472511206 
1.268618088356987 
1.2628888157450997 
1.2504720092731954 
1.2262500403981131 
1.1832635926634079 
1.1133701849352913 
1.0085533241888096 
0.8611875157438218 
0.6148559439367316 
0.45380009749962347 
19.24975616685031 
19.24975616685031 
19.24975616685031 
19.24975616685031 
19.24975616685031 
19.249755434103115 
19.249745669691613 
19.249664134912685 
19.249147298339146 
19.2467665582896 
19.237960824369786 
19.211087837200928 
19.140632723235733 
18.979187504930543 
18.649586530639077 
18.04365048485578 
17.030100468717883 
15.476027664940155 
13.249582719865312 
9.457089589215425 
6.963189780329056 
245.43902394924535 
245.43902394924532 
245.43902394924532 
245.43902394924532 
245.43902387708084 
245.439021040461 
245.43898306528246 
245.43859845627117 
245.4356222647557 
245.41849619197356 
245.34573184187272 
245.09588273380336 
244.38496342149554 
242.64262893369795 
238.9045532125155 
231.75163236244236 
219.41761355892535 
200.04420873409583 
171.7154969160805 
122.45531574306406 
89.84661602484674 
2593.026528918684 
2593.026528918684 
2593.026528918684 
2593.026528918684 
2593.026528485697 
2593.0265195372995 
2593.026392783137 
2593.02493448299 
2593.0117315775537 
2592.920330146685 
2592.4474577221345 
2590.6090257543638 
2584.795114490834 
2569.4799329040166 
2534.6321295693906 
2465.070189547335 
2341.0321771416548 
2141.2616528049257 
1842.6205200594563 
1311.539941953321 
957.7074795208414 
22239.54440647712 
22239.54440647712 
22239.54440647712 
22239.54440647712 
22239.54440517816 
22239.544381486005 
22239.54401893157 
22239.539408108736 
22239.49220231946 
22239.11335221262 
22236.793673569002 
22226.12146626223 
22188.526548597147 
22080.110959321602 
21818.06598826329 
21269.189447736804 
20257.346484342514 
18584.75222044908 
16026.559207207854 
11367.815163310086 
8240.172147433439 
150951.65914287273 
150951.65914287273 
150951.65914287273 
150951.65914280055 
150951.65913990844 
150951.6590850468 
150951.65818101435 
150951.6457036896 
150951.50485515123 
150950.2346032365 
150941.3168668427 
150893.70298344558 
150701.48588468827 
150095.69706003193 
148523.18275602456 
145076.07108146796 
138500.24636300467 
127380.60414580195 
109982.92587224564 
77532.12428022735 
55607.17719086391 
784868.7965169573 
784868.7965169573 
784868.7965169573 
784868.7965168185 
784868.7965112564 
784868.7963971919 
784868.7944010498 
784868.7649563365 
784868.4054668315 
784864.8483116669 
784837.0011135945 
784668.8357859896 
783899.8297074737 
781221.707945878 
773799.854707349 
756762.160767235 
723417.1975165429 
666089.815697887 
574766.8714394026 
400807.3429787594 
282519.8404715677 
2994405.8325126246 
2994405.8325126246 
2994405.8325126246 
2994405.8325123414 
2994405.8325022943 
2994405.832287216 
2994405.828342815 
2994405.76692757 
2994404.9682459715 
2994396.4575443724 
2994323.80368629 
2993839.3362763785 
2991377.5106273564 
2981962.4676988386 
2954316.0211689416 
2888621.016691366 
2758586.114634067 
2535242.8026737142 
2177376.8676164337 
1488645.7916822352 
1019050.8824271022 
7917408.494753328 
7917408.494753329 
7917408.494753329 
7917408.494752679 
7917408.49473598 
7917408.494367197 
7917408.487343006 
7917408.373084193 
7917406.809961745 
7917389.141242143 
7917227.581138162 
7916062.018641194 
7909607.181536089 
7882829.347719303 
7799994.7347956 
7601568.515881415 
7212824.150238868 
6568919.135632177 
5558556.678233587 
3654121.6674679443 
2367953.646857095 
13591061.40321597 
13591061.40321597 
13591061.40321597 
13591061.403214889 
13591061.403189398 
13591061.402612519 
13591061.391281774 
13591061.200424688 
13591058.482321884 
13591026.294616878 
13590715.67384011 
13588331.655004453 
13574194.839213021 
13511438.889591455 
13308060.513499336 
12823779.097613376 
11923620.844204381 
10541887.741317583 
8538762.523067389 
5121354.960253846 
2893872.544848817 
14874865.118417086 
14874865.118417086 
14874865.118417086 
14874865.118415643 
14874865.118379842 
14874865.117553134 
14874865.100914065 
14874864.812894206 
14874860.580794591 
14874808.625889499 
14874285.942344261 
14870078.227648027 
14843760.973123096 
14720390.512006532 
14303818.673358105 
13318834.549917422 
11642317.424415532 
9358846.700343933 
6544153.298514354 
2938916.745277667 
872221.4777873356 
13001264.880666502 
13001264.880666502 
13001264.880666502 
13001264.880664699 
13001264.88061827 
13001264.879527843 
13001264.857180722 
13001264.462339835 
13001258.523070918 
13001183.62028832 
13000406.330931842 
12993922.100202776 
12951708.382452425 
12745288.904777795 
12023502.077030972 
10319476.19087285 
7692913.510754579 
4737535.049418534 
1825396.6424243543 
-24047.28341113525 
-442389.680231633 
13170596.006027274 
13170596.006027274 
13170596.006027274 
13170596.006025115 
13170596.005969327 
13170596.004642434 
13170595.977108411 
13170595.483619975 
13170587.938417438 
13170490.986500366 
13169463.012213826 
13160672.999757176 
13101824.088857112 
12805246.728201631 
11739600.500371445 
9211566.016135903 
5633988.805993211 
2669687.4973108657 
517174.221291172 
79640.47269425646 
699927.283304267 
13618818.311848875 
13618818.311848875 
13618818.311848875 
13618818.311846428 
13618818.311784055 
13618818.310292423 
13618818.27910874 
13618817.715466708 
13618809.014362773 
13618695.972131817 
13617482.126018897 
13606950.709716573 
13535265.405424375 
13167373.549166065 
11822153.413266663 
8609206.645536434 
4301794.075413703 
1890579.1718623524 
1028069.7450657598 
-41662.77316012792 
-526043.8270214574 
13177779.521694517 
13177779.521694517 
13177779.521694517 
13177779.521691918 
13177779.521627028 
13177779.520076178 
13177779.487574764 
13177778.898468148 
13177769.775328271 
13177650.818242572 
13176368.11592184 