<?xml version="1.0"?>
<VTKFile type="UnstructuredGrid" version="0.1" byte_order="LittleEndian" compressor="vtkZLibDataCompressor">
<UnstructuredGrid>
<Piece NumberOfPoints="441" NumberOfCells="400">
<PointData>
<DataArray type="Float64" Name="displacement" NumberOfComponents="3" format="ascii" >
0.0 2.0417178913716468e-09  0.
-1.2619814933663789e-15 2.0417169925158672e-09  0.
-4.857768557521424e-15 2.0417125982095402e-09  0.
-1.6134416745517943e-14 2.0416973735721784e-09  0.
-4.87785005298188e-14 2.041649856573397e-09  0.
-1.3528096660554268e-13 2.0415140061130913e-09  0.
-3.459113669652025e-13 2.04115625315792e-09  0.
-8.191610900477079e-13 2.040284495268729e-09  0.
-1.8039245174699013e-12 2.038310753235792e-09  0.
-3.707661365219472e-12 2.034143176679764e-09  0.
-7.135619336184196e-12 2.02590891323706e-09  0.
-1.2896558811419977e-11 2.010640014275318e-09  0.
-2.1945368511908177e-11 1.9839970435053398e-09  0.
-3.523901154572437e-11 1.940147186999283e-09  0.
-5.3503271046614895e-11 1.8719350450464042e-09  0.
-7.694292321008792e-11 1.7714622774235342e-09  0.
-1.0497077222687277e-10 1.6311163511029067e-09  0.
-1.3610847897878058e-10 1.445012095227573e-09  0.
-1.686439294852057e-10 1.2119603224002928e-09  0.
-2.1173645360277558e-10 9.55109871523261e-10  0.
-4.2648347793129806e-10 9.747656989851354e-10  0.
0.0 5.614281551134122e-09  0.
-2.6985514916424646e-15 5.614279891244726e-09  0.
-1.0758438182904592e-14 5.614271469423797e-09  0.
-3.705002740050862e-14 5.6142409261061995e-09  0.
-1.1584161562957967e-13 5.614141402944166e-09  0.
-3.31257463313398e-13 5.6138455786992525e-09  0.
-8.707430596632808e-13 5.61303893848033e-09  0.
-2.1137353243901465e-12 5.611011437359996e-09  0.
-4.758709174804818e-12 5.606292976101233e-09  0.
-9.974132830271054e-12 5.5960848730895415e-09  0.
-1.95303134179927e-11 5.5754800245825905e-09  0.
-3.5837240812467395e-11 5.536549999111022e-09  0.
-6.179417155053251e-11 5.467502125929425e-09  0.
-1.0037124520415422e-10 5.352240167989117e-09  0.
-1.5390600859558647e-10 5.170737917585333e-09  0.
-2.2320685373684635e-10 4.90058718080152e-09  0.
-3.0669664790924496e-10 4.5198815089426574e-09  0.
-4.0019287162622303e-10 4.01152669158301e-09  0.
-5.015008403819591e-10 3.372736673155071e-09  0.
-6.649971372677342e-10 2.6889736002302846e-09  0.
-1.5609472791431972e-09 2.868613765713948e-09  0.
0.0 2.5472028740468914e-08  0.
-9.74568339055757e-15 2.5472023308981227e-08  0.
-4.0333809787487277e-14 2.5471994888458708e-08  0.
-1.4427445725020106e-13 2.5471887854840988e-08  0.
-4.670838959475573e-13 2.5471526439950867e-08  0.
-1.378203378410253e-12 2.5470416891661518e-08  0.
-3.725524134508649e-12 2.5467302602890622e-08  0.
-9.270675382102495e-12 2.5459270972286435e-08  0.
-2.1331903926584867e-11 2.544015069480894e-08  0.
-4.5573783477626794e-11 2.5397954243031106e-08  0.
-9.073502237573689e-11 2.531129269722013e-08  0.
-1.6890935008137853e-10 2.5145082180925616e-08  0.
-2.948812931049952e-10 2.484645299760908e-08  0.
-4.840728933341778e-10 2.4342412916028363e-08  0.
-7.489807610230479e-10 2.3541210534416154e-08  0.
-1.094543272367352e-09 2.2339163901592405e-08  0.
-1.5136469806198993e-09 2.0633847567026922e-08  0.
-1.985966306380448e-09 1.8344606275871e-08  0.
-2.502359765057638e-09 1.546254741963202e-08  0.
-3.3429156013377224e-09 1.2407264297645715e-08  0.
-7.770495613223968e-09 1.3466635560437613e-08  0.
0.0 1.030915343116332e-07  0.
-3.1770043140321554e-14 1.0309151771341321e-07  0.
-1.3613652442478237e-13 1.0309142827895054e-07  0.
-5.043137912785686e-13 1.0309107936553546e-07  0.
-1.6856738941053103e-12 1.0308986179686132e-07  0.
-5.1175284045770785e-12 1.0308601234327981e-07  0.
-1.4184858560444084e-11 1.0307492492385562e-07  0.
-3.6078364340660705e-11 1.0304568167565913e-07  0.
-8.460006307591914e-11 1.0297470743384014e-07  0.
-1.8369029121502189e-10 1.028154781222286e-07  0.
-3.70777485988131e-10 1.0248389665515829e-07  0.
-6.982537273841126e-10 1.0184056024112264e-07  0.
-1.230815049732531e-09 1.0067362675623145e-07  0.
-2.0366654583127896e-09 9.868866882918104e-08  0.
-3.1719673825278814e-09 9.551357211661497e-08  0.
-4.6605377643951796e-09 9.072577117324008e-08  0.
-6.4742774013131034e-09 8.390580241999416e-08  0.
-8.530619185751031e-09 7.472456699838318e-08  0.
-1.0818815937421479e-08 6.31822510173211e-08  0.
-1.4663205402036434e-08 5.126566430270046e-08  0.
-3.287817474528507e-08 5.645470647797556e-08  0.
0.0 3.5743230089443193e-07  0.
-9.466079099700586e-14 3.5743225456885204e-07  0.
-4.1902285003643663e-13 3.574319980472316e-07  0.
-1.6033727211297114e-12 3.5743096431367774e-07  0.
-5.5180398807402515e-12 3.574272480022154e-07  0.
-1.7185574973043114e-11 3.5741518928124e-07  0.
-4.86902629284412e-11 3.5737968096131256e-07  0.
-1.2614673477759753e-10 3.572842920149728e-07  0.
-3.003517962657318e-10 3.5704930571915427e-07  0.
-6.602763197277186e-10 3.565158863142893e-07  0.
-1.345934321459749e-09 3.5539508832574504e-07  0.
-2.5540200319560912e-09 3.532062930463329e-07  0.
-4.527690355543793e-09 3.4921845300045803e-07  0.
-7.522984407946338e-09 3.424167229914801e-07  0.
-1.17502307173911e-08 3.3152198638153355e-07  0.
-1.7298675582034667e-08 3.150871101490627e-07  0.
-2.40671790248918e-08 2.916831188232352e-07  0.
-3.1774240482809754e-08 2.602190676612464e-07  0.
-4.053962116934864e-08 2.209509676480763e-07  0.
-5.578045017090755e-08 1.8209581177184103e-07  0.
-1.197662787455532e-07 2.0410145596737192e-07  0.
0.0 1.0446458239200652e-06  0.
-2.590687929928217e-13 1.044645705612523e-06  0.
-1.1817661699021987e-12 1.0446450337380807e-06  0.
-4.6581356310394295e-12 1.044642244967906e-06  0.
-1.6458602166572483e-11 1.0446319481136572e-06  0.
-5.242019335497748e-11 1.0445977743968708e-06  0.
-1.5127280793916221e-10 1.0444952995302053e-06  0.
-3.9764551526855995e-10 1.0442161700685683e-06  0.
-9.571736030916424e-10 1.0435217859579712e-06  0.
-2.120385980620448e-09 1.0419359630233102e-06  0.
-4.343071329468106e-09 1.0385948339067667e-06  0.
-8.260559037859091e-09 1.0320712015204512e-06  0.
-1.4648184274813746e-08 1.0202168647507287e-06  0.
-2.430632009969556e-08 1.0000905058600209e-06  0.
-3.787056560499264e-08 9.680460156707265e-07  0.
-5.558073388587917e-08 9.200366033271443e-07  0.
-7.709342722947553e-08 8.52163788624125e-07  0.
-1.016310427756266e-07 7.616853216356188e-07  0.
-1.303229669435993e-07 6.507319325747116e-07  0.
-1.8217176160884488e-07 5.486498936515106e-07  0.
-3.7113093561433e-07 6.284433593843265e-07  0.
0.0 2.528294687412223e-06  0.
-6.529264127276973e-13 2.5282944106798666e-06  0.
-3.0615552812945834e-12 2.5282928022224757e-06  0.
-1.2397145206478114e-11 2.52828594466772e-06  0.
-4.4843737106781446e-11 2.52826001697078e-06  0.
-1.456031926508062e-10 2.5281722949502857e-06  0.
-4.264349088232257e-10 2.527905464364219e-06  0.
-1.132624419004813e-09 2.527171911544885e-06  0.
-2.743188670603252e-09 2.5253392026047395e-06  0.
-6.091007709818379e-09 2.5211550534351094e-06  0.
-1.2462057105727145e-08 2.5123799072241464e-06  0.
-2.3606765626713906e-08 2.495389407501687e-06  0.
-4.158880870498468e-08 2.4648742926358725e-06  0.
-6.843199582510204e-08 2.4138060074803464e-06  0.
-1.055957108030073e-07 2.333818729259368e-06  0.
-1.5341517423426244e-07 2.21606890436504e-06  0.
-2.1078179356281975e-07 2.0526019014844966e-06  0.
-2.7610581946084456e-07 1.8391198352567848e-06  0.
-3.5541139185263056e-07 1.5868523993129058e-06  0.
-5.047841337562218e-07 1.3847330235821735e-06  0.
-9.647543140429375e-07 1.6279253898552149e-06  0.
0.0 4.980357667425969e-06  0.
-1.517515172919835e-12 4.980357074901814e-06  0.
-7.295857353372838e-12 4.9803535574306245e-06  0.
-3.026822928610773e-11 4.9803381951074505e-06  0.
-1.1178263304654021e-10 4.980278884620645e-06  0.
-3.6888893771916986e-10 4.980074956036087e-06  0.
-1.0926137833887938e-09 4.97944807796092e-06  0.
-2.9200441634511866e-09 4.977716693440781e-06  0.
-7.081379525314326e-09 4.973396473306083e-06  0.
-1.5671600212693637e-08 4.9636022222919596e-06  0.
-3.1824540264458385e-08 4.943315990024943e-06  0.
-5.961386934151803e-08 4.904722740939887e-06  0.
-1.0352983402892818e-07 4.8369352417733526e-06  0.
-1.6751149017261055e-07 4.726446814417233e-06  0.
-2.5374710420239443e-07 4.558476312945592e-06  0.
-3.6167448815626907e-07 4.319092184644183e-06  0.
-4.880519041076713e-07 3.998108481630585e-06  0.
-6.312272802509871e-07 3.596017403470997e-06  0.
-8.146140403261845e-07 3.1565724221949405e-06  0.
-1.1736992848282337e-06 2.9030733002680863e-06  0.
-2.076038179162038e-06 3.5119322016344396e-06  0.
0.0 7.934852122285204e-06  0.
-3.2595818592395925e-12 7.934850959324994e-06  0.
-1.6028316907946394e-11 7.934843922490486e-06  0.
-6.795106561814347e-11 7.93481252104823e-06  0.
-2.5553926318494665e-10 7.934689050597192e-06  0.
-8.546809322639809e-10 7.934258849970923e-06  0.
-2.5516572648958145e-09 7.932926978910318e-06  0.
-6.8342604344378744e-09 7.929247357825903e-06  0.
-1.651554837260578e-08 7.920127325551322e-06  0.
-3.6224367578603894e-08 7.899733146828593e-06  0.
-7.254012509936832e-08 7.858351124002647e-06  0.
-1.3338809267165967e-07 7.781733895588051e-06  0.
-2.264993471720972e-07 7.651595602222161e-06  0.
-3.57153448903636e-07 7.447711187609266e-06  0.
-5.259949691404126e-07 7.15147923084925e-06  0.
-7.281032064924988e-07 6.750223825414681e-06  0.
-9.556096963812159e-07 6.242655112691979e-06  0.
-1.2119693595176232e-06 5.655712066759999e-06  0.
-1.5667085523681149e-06 5.1200921971101e-06  0.
-2.276631837595535e-06 5.084362693625735e-06  0.
-3.674442922717601e-06 6.299039589088929e-06  0.
0.0 1.0506006061128844e-05  0.
-6.501461941330972e-12 1.0506003954865587e-05  0.
-3.262093609528193e-11 1.0505990990260972e-05  0.
-1.4097730208243418e-10 1.0505932020244379e-05  0.
-5.385870488203053e-10 1.050569643121264e-05  0.
-1.8211199779266273e-09 1.0504866675585026e-05  0.
-5.464120769275192e-09 1.050228712854893e-05  0.
-1.4612946969833568e-08 1.0495185860885839e-05  0.
-3.5030429934435046e-08 1.0477791280897034e-05  0.
-7.573794756663752e-08 1.0439668817690225e-05  0.
-1.4862192776035055e-07 1.0364484539873693e-05  0.
-2.663766413665141e-07 1.0230285839035354e-05  0.
-4.3880464118273623e-07 1.0012287005538583e-05  0.
-6.686491656723902e-07 9.688197958354442e-06  0.
-9.488206204343576e-07 9.244914018919033e-06  0.
-1.2638551254574844e-06 8.684935912342675e-06  0.
-1.6000399007503365e-06 8.036232286126073e-06  0.
-1.9820269393179353e-06 7.392065384285219e-06  0.
-2.5682710825612563e-06 7.052080711605461e-06  0.
-3.713004667786727e-06 7.692327840909792e-06  0.
-5.420271272475549e-06 9.549547538287401e-06  0.
0.0 1.2551031714159635e-05  0.
-1.2111896600607241e-11 1.2551028168497813e-05  0.
-6.187749903863539e-11 1.255100600750596e-05  0.
-2.720202372799989e-10 1.2550903483824008e-05  0.
-1.053607477616228e-09 1.2550488167293278e-05  0.
-3.594256118789446e-09 1.254901247611194e-05  0.
-1.081216782549288e-08 1.2544416441779068e-05  0.
-2.878269960404865e-08 1.2531848731961677e-05  0.
-6.817204990538416e-08 1.2501559303933372e-05  0.
-1.4457843036080672e-07 1.2436881154776017e-05  0.
-2.764200075747818e-07 1.2313817190078514e-05  0.
-4.79809156875581e-07 1.2103939605888123e-05  0.
-7.616078573644369e-07 1.1781177850946807e-05  0.
-1.1138742588571472e-06 1.1330899632386586e-05  0.
-1.5135356144709071e-06 1.0757724701256467e-05  0.
-1.930839060382074e-06 1.0091624632776904e-05  0.
-2.35601042537331e-06 9.406368905363018e-06  0.
-2.868089508051235e-06 8.904179722853656e-06  0.
-3.7401445807277096e-06 9.101849116742559e-06  0.
-5.260473584990541e-06 1.0645755364821438e-05  0.
-6.9911363876609125e-06 1.2719678969426685e-05  0.
0.0 1.48647667694475e-05  0.
-2.1140627503236636e-11 1.4864761225133357e-05  0.
-1.0975547646825109e-10 1.4864726094727323e-05  0.
-4.898709455566711e-10 1.4864561100903965e-05  0.
-1.9203868541938595e-09 1.4863884514874752e-05  0.
-6.5988506660914005e-09 1.4861462958078409e-05  0.
-1.9866179971043813e-08 1.4853919940388469e-05  0.
-5.251669742788658e-08 1.483348087121706e-05  0.
-1.224946180753628e-07 1.4785191696015125e-05  0.
-2.537694410044017e-07 1.4685258183555462e-05  0.
-4.7044604606574917e-07 1.4503059161787636e-05  0.
-7.867915392346159e-07 1.4208540218081696e-05  0.
-1.1976213105560079e-06 1.3783361671957692e-05  0.
-1.6750805858630936e-06 1.3230657926844662e-05  0.
-2.177583781933688e-06 1.2578224822264647e-05  0.
-2.6719345548424954e-06 1.188175420234106e-05  0.
-3.1849188966476445e-06 1.1265595003722043e-05  0.
-3.893296134948712e-06 1.1066575606177247e-05  0.
-5.12847363389555e-06 1.1925617577760326e-05  0.
-6.8566710213128785e-06 1.3941287301476542e-05  0.
-8.47874737746918e-06 1.557150234350497e-05  0.
0.0 1.7492929876521965e-05  0.
-3.459850432020025e-11 1.7492921858876525e-05  0.
-1.8218980934391286e-10 1.749287043611442e-05  0.
-8.240724911858139e-10 1.7492625685455223e-05  0.
-3.264439651073399e-09 1.7491611279781332e-05  0.
-1.1283346155294169e-08 1.7487958882443544e-05  0.
-3.3948823638089515e-08 1.7476594529131604e-05  0.
-8.89595947693111e-08 1.7446133694781542e-05  0.
-2.0381295633780976e-07 1.7375797726144458e-05  0.
-4.110571120368356e-07 1.7235398536272075e-05  0.
-7.361159655554367e-07 1.6991644557295548e-05  0.
-1.182103568897354e-06 1.662068702717129e-05  0.
-1.7221325846623845e-06 1.6120475425754346e-05  0.
-2.306885234408576e-06 1.551354523727947e-05  0.
-2.8890694338036326e-06 1.4841080542776357e-05  0.
-3.466223118120384e-06 1.4172079379336413e-05  0.
-4.144824902837372e-06 1.3698435493069246e-05  0.
-5.208100434158872e-06 1.390037682817412e-05  0.
-6.856649337300588e-06 1.5274697993177687e-05  0.
-8.620617084032609e-06 1.7028068335387916e-05  0.
-1.0092271778138197e-05 1.8096780817526674e-05  0.
0.0 1.976382264001902e-05  0.
-5.320422360227582e-11 1.976381190382132e-05  0.
-2.8363607078760967e-10 1.9763742317482897e-05  0.
-1.2978052310035363e-09 1.9763407293562175e-05  0.
-5.187134806567533e-09 1.976200606525077e-05  0.
-1.8012527046501026e-08 1.9756936929781784e-05  0.
-5.410539162768374e-08 1.9741197640327555e-05  0.
-1.4036022094893892e-07 1.9699516250901124e-05  0.
-3.1525594514590866e-07 1.9605664015916392e-05  0.
-6.173229552462885e-07 1.942570928471699e-05  0.
-1.064998978284959e-06 1.912985894717318e-05  0.
-1.6398569219871331e-06 1.8707842455618154e-05  0.
-2.2902889350639405e-06 1.8175497997329377e-05  0.
-2.9606052290824094e-06 1.756324267083301e-05  0.
-3.629374655920266e-06 1.6905555357672984e-05  0.
-4.363003277487219e-06 1.6291680505926837e-05  0.
-5.362726476815106e-06 1.6028297344694615e-05  0.
-6.900951095475733e-06 1.669304937969165e-05  0.
-8.825142332705649e-06 1.8293077242617476e-05  0.
-1.0450302964932792e-05 1.9502486407673688e-05  0.
-1.1766540500924905e-05 2.062439753541739e-05  0.
0.0 2.209043869091016e-05  0.
-7.705237461888472e-11 2.209042540395131e-05  0.
-4.151321285495829e-10 2.2090338506855786e-05  0.
-1.9183011639336083e-09 2.2089916027147454e-05  0.
-7.72534157813217e-09 2.2088135399553012e-05  0.
-2.6925342829839625e-08 2.2081669454825977e-05  0.
-8.069360542388544e-08 2.2061646189929135e-05  0.
-2.0713173995884597e-07 2.2009276154725652e-05  0.
-4.556551006993491e-07 2.189441235958573e-05  0.
-8.649133010653505e-07 2.1683468738342773e-05  0.
-1.4356053152078028e-06 2.13565213247364e-05  0.
-2.122189144843671e-06 2.0919776598049432e-05  0.
-2.8591927458951308e-06 2.0397926285111728e-05  0.
-3.6149701475592238e-06 1.9810649293314723e-05  0.
-4.428864956651239e-06 1.9182091671244353e-05  0.
-5.436513939661318e-06 1.866990277619017e-05  0.
-6.876236522302515e-06 1.873082204034108e-05  0.
-8.779201011848129e-06 1.981200687069595e-05  0.
-1.063677951069138e-05 2.1204447599829246e-05  0.
-1.200029919045963e-05 2.1970396858892328e-05  0.
-1.337158150633439e-05 2.345064735277269e-05  0.
0.0 2.4595744055685504e-05  0.
-1.0517198022418553e-10 2.4595729001064336e-05  0.
-5.716653734783704e-10 2.4595629789984927e-05  0.
-2.6635133594427347e-09 2.4595143431322047e-05  0.
-1.0793995603372785e-08 2.4593080247763736e-05  0.
-3.7728807826966586e-08 2.458556527731621e-05  0.
-1.1278602206957009e-07 2.4562356350990958e-05  0.
-2.8651638449428725e-07 2.4502376170440758e-05  0.
-6.174523019870146e-07 2.437417920845458e-05  0.
-1.1360064153273347e-06 2.4148919102711344e-05  0.
-1.815148946988003e-06 2.3820537967902605e-05  0.
-2.5875173082182646e-06 2.3407988973355793e-05  0.
-3.400532358612932e-06 2.2928503779846833e-05  0.
-4.274502291022314e-06 2.2380984471914138e-05  0.
-5.316149060103456e-06 2.1808996162568157e-05  0.
-6.6673359030403145e-06 2.1490236240679243e-05  0.
-8.449168011088277e-06 2.196090667298092e-05  0.
-1.0377710593550638e-05 2.3181459263955435e-05  0.
-1.188574949250921e-05 2.3999397769249615e-05  0.
-1.3171334700784176e-05 2.452498565871296e-05  0.
-1.454796573771102e-05 2.5797681341996166e-05  0.
0.0 2.6876389999197106e-05  0.
-1.3546391025781595e-10 2.6876374523860094e-05  0.
-7.416159759933393e-10 2.687627191556179e-05  0.
-3.4784892977385273e-09 2.687576556653839e-05  0.
-1.4167978474840967e-08 2.6873606540720788e-05  0.
-4.962960472012197e-08 2.6865724606757495e-05  0.
-1.479905479873414e-07 2.6841447698510733e-05  0.
-3.7235811745626756e-07 2.677939193321534e-05  0.
-7.871626007807259e-07 2.6649926837970503e-05  0.
-1.4058584267156758e-06 2.6432006398959315e-05  0.
-2.1678315905219454e-06 2.613310535372461e-05  0.
-3.001295109626604e-06 2.577652435748299e-05  0.
-3.901621458267881e-06 2.5358582558729528e-05  0.
-4.940780587954282e-06 2.486564550197323e-05  0.
-6.244111931819173e-06 2.4407900923150578e-05  0.
-7.867551749284139e-06 2.4361293993939446e-05  0.
-9.677953525706344e-06 2.509607985825117e-05  0.
-1.1332104601153622e-05 2.6029165241715687e-05  0.
-1.2592929399270034e-05 2.6341697361632478e-05  0.
-1.4070677171528948e-05 2.6985217240808198e-05  0.
-1.5153592970004369e-05 2.7606425864139566e-05  0.
0.0 2.931778469391223e-05  0.
-1.64805668337707e-10 2.931777060076383e-05  0.
-9.072663366335196e-10 2.931767671061756e-05  0.
-4.277456492216235e-09 2.9317210990345493e-05  0.
-1.7489892875012082e-08 2.9315217267833207e-05  0.
-6.13638226376895e-08 2.9307926288306887e-05  0.
-1.8257734088955768e-07 2.928552104778409e-05  0.
-4.556495186471753e-07 2.9228775377845845e-05  0.
-9.473761208164943e-07 2.911283388892918e-05  0.
-1.64826277872226e-06 2.8925086538627354e-05  0.
-2.4643806625852134e-06 2.868169840866834e-05  0.
-3.3421928319119507e-06 2.8402257117557517e-05  0.
-4.352952243325069e-06 2.806144126517625e-05  0.
-5.581434103158245e-06 2.7650697616523476e-05  0.
-7.074638210742467e-06 2.7358776999369008e-05  0.
-8.78114262869289e-06 2.7545456812401807e-05  0.
-1.0397138766936683e-05 2.8222010434115853e-05  0.
-1.1827693378658923e-05 2.8678675003942056e-05  0.
-1.3220501393417869e-05 2.8836803322205803e-05  0.
-1.4624672640602903e-05 2.9546088517012755e-05  0.
-1.5809277033541293e-05 2.9845447973399725e-05  0.
0.0 3.167823279996942e-05  0.
-1.8948488527574999e-10 3.1678222016659516e-05  0.
-1.0472420395300082e-09 3.167814993341921e-05  0.
-4.9554944340568125e-09 3.167779107008944e-05  0.
-2.0317914646791324e-08 3.167625043959513e-05  0.
-7.136326670818342e-08 3.167060963960482e-05  0.
-2.1196354273693223e-07 3.165330548031781e-05  0.
-5.257060365554271e-07 3.160978229743865e-05  0.
-1.0790908689556663e-06 3.152227326524937e-05  0.
-1.8390998495764945e-06 3.138488452975878e-05  0.
-2.6846378608139205e-06 3.121485235267427e-05  0.
-3.5963012360061575e-06 3.10241542595503e-05  0.
-4.72733861827331e-06 3.077912565076199e-05  0.
-6.1213311495769975e-06 3.048497674371263e-05  0.
-7.668305996457031e-06 3.034936863166715e-05  0.
-9.312071406685547e-06 3.060434813721833e-05  0.
-1.081974765880777e-05 3.101942744664503e-05  0.
-1.2243345082791441e-05 3.1179504593143854e-05  0.
-1.3772042842177994e-05 3.1400090012731675e-05  0.
-1.4892778145373816e-05 3.178680216790226e-05  0.
-1.6401354217194304e-05 3.203764426220775e-05  0.
0.0 3.406698760762211e-05  0.
-2.0599753747965345e-10 3.406698174884915e-05  0.
-1.141188340546326e-09 3.406694250629776e-05  0.
-5.411871894047706e-09 3.406674671795882e-05  0.
-2.2225426188716035e-08 3.4065904796374386e-05  0.
-7.811231584635423e-08 3.406282021083973e-05  0.
-2.3175709429600906e-07 3.405336858836025e-05  0.
-5.725636578810641e-07 3.40297002935057e-05  0.
-1.1657647737918247e-06 3.398259768043316e-05  0.
-1.9606927078941822e-06 3.391012909716544e-05  0.
-2.8189380383530484e-06 3.382318261027797e-05  0.
-3.7538523150798867e-06 3.3726822864968115e-05  0.
-4.980585310219421e-06 3.359775941977315e-05  0.
-6.479214338232347e-06 3.344513934762679e-05  0.
-7.989394821716273e-06 3.340524599198285e-05  0.
-9.563025249372205e-06 3.357199692955349e-05  0.
-1.1135101240316158e-05 3.3734753246812396e-05  0.
-1.2530099546886446e-05 3.378851999309931e-05  0.
-1.3958994366363659e-05 3.399737614018803e-05  0.
-1.5203625605556119e-05 3.41099164678987e-05  0.
-1.6472544693195652e-05 3.4198103661459794e-05  0.
0.0 3.6450000000000046e-05  0.
-2.1181034328071068e-10 3.6450000000000046e-05  0.
-1.1743095354290854e-09 3.6450000000000046e-05  0.
-5.572994320818573e-09 3.6450000000000046e-05  0.
-2.2899546039685774e-08 3.6450000000000046e-05  0.
-8.049808925151339e-08 3.6450000000000046e-05  0.
-2.387463338411355e-07 3.6450000000000046e-05  0.
-5.890486276002264e-07 3.6450000000000046e-05  0.
-1.1959964773089098e-06 3.6450000000000046e-05  0.
-2.0023732706325463e-06 3.6450000000000046e-05  0.
-2.863892600371721e-06 3.6450000000000046e-05  0.
-3.807342379345997e-06 3.6450000000000046e-05  0.
-5.070691201197784e-06 3.6450000000000046e-05  0.
-6.603756181987153e-06 3.6450000000000046e-05  0.
-8.085488702786997e-06 3.6450000000000046e-05  0.
-9.63820716739984e-06 3.6450000000000046e-05  0.
-1.1268091812655765e-05 3.6450000000000046e-05  0.
-1.2600879248224419e-05 3.6450000000000046e-05  0.
-1.3958022677111234e-05 3.6450000000000046e-05  0.
-1.541123694104772e-05 3.6450000000000046e-05  0.
-1.6402148192674403e-05 3.6450000000000046e-05  0.
</DataArray>
<DataArray type="Float64" Name="sigma_xx" NumberOfComponents="1" format="ascii" >
20006.405242956043 
20006.378531500774 
20006.257362459306 
20005.87659437558 
20004.798254591442 
20001.98849992917 
19995.21234810064 
19980.01814783045 
19948.2104419224 
19885.813829001447 
19770.72670406032 
19570.532709162195 
19241.207337161715 
18727.615134833668 
17966.611145853178 
16893.128827277775 
15448.491197733721 
13583.596591998366 
11185.609016661765 
7106.374404031167 
4381.993679836159 
65605.96124044468 
65605.89718008766 
65605.59928620033 
65604.6326413806 
65601.80843971361 
65594.23478684765 
65575.48309742697 
65532.4175787064 
65440.284689413624 
65255.96316271918 
64909.91289485601 
64298.28674823221 
63277.66944744237 
61665.57660891856 
59249.7351778992 
55807.83551495937 
51135.75846170114 
45062.77389721423 
37246.663913367825 
24814.8018169747 
16793.047815594204 
272954.12004688644 
272953.89733731345 
272952.8376522071 
272949.3006107197 
272938.6970912295 
272909.6267689717 
272836.3059857602 
272665.33248175005 
272295.0490658098 
271547.11564598134 
270132.67955649504 
267619.5271807096 
263410.7207239055 
256747.78804643243 
246750.5449779499 
232499.56387225425 
213150.20713099086 
187973.0548495744 
155398.8849737203 
103639.25807613524 
70322.95537666153 
929686.2673316305 
929685.5644995546 
929682.153719968 
929670.4991846979 
929634.8407288154 
929535.4682419845 
929281.7037341886 
928684.7764189891 
927385.0332506297 
924753.4712532115 
919778.1439433919 
910959.9301991398 
896254.8886290553 
873105.4661285817 
838594.5414627335 
789730.2770070306 
723799.134028069 
638314.8059231206 
526945.402883494 
347730.5024601944 
231943.57054068794 
2637854.0845589316 
2637852.0507997097 
2637842.000345152 
2637806.933808542 
2637697.777505615 
2637389.7145143757 
2636596.668449028 
2634724.307536195 
2630648.996220521 
2622431.5106899035 
2607010.104153142 
2579957.573632082 
2535413.802365779 
2466297.2942276313 
2364848.006493097 
2223452.0999273746 
2035437.3168059902 
1793977.510500402 
1477182.7533539473 
960949.0103778869 
626467.0760847299 
6085896.801853461 
6085891.3850109475 
6085864.170072977 
6085767.462030828 
6085462.164162437 
6084592.949417103 
6082347.703140421 
6077056.583562111 
6065619.363831651 
6042825.422620241 
6000734.936984787 
5928380.072948007 
5812052.276254247 
5636327.634941356 
5385739.066676341 
5046675.671816784 
4608216.3444628855 
4055643.179370146 
3324901.6150776455 
2118983.323145206 
1336515.2865452138 
11042983.19581429 
11042969.89541427 
11042902.073353665 
11042657.241396336 
11041875.843761455 
11039640.20970073 
11033873.544376899 
11020389.008399094 
10991648.192869915 
10935519.039098801 
10834574.166890623 
10666577.462842615 
10406595.940292817 
10030592.870676592 
9519581.40460714 
8862532.840240117 
8053806.514888618 
7067746.973342293 
5747276.407431266 
3545725.5454677464 
2121450.8003980992 
15179618.127394741 
15179587.960155256 
15179432.085944047 
15178861.824231673 
15177027.175601425 
15171771.853499962 
15158299.362988386 
15127227.0816561 
15062414.776372004 
14939529.97909172 
14726739.578767302 
14388692.642981352 
13893857.067945074 
13223413.746690521 
12378282.303255294 
11379247.030585183 
10249528.020715231 
8942458.474227222 
7139876.115797756 
4146746.011208403 
2244542.106487005 
15514727.208628051 
15514663.728080118 
15514331.847077223 
15513103.827942535 
15509130.988350686 
15497773.497326603 
15468960.916299999 
15403793.220838167 
15271755.200026875 
15031026.498244118 
14634538.520583138 
14042682.00358336 
13239892.338161528 
12248755.577574886 
11133196.210597673 
9982177.267618513 
8853421.916286252 
7623882.155565001 
5773889.271405733 
2895761.415250894 
1194276.7578421242 
12955446.02798387 
12955321.399456728 
12954662.920556674 
12952202.550223384 
12944213.10762937 
12921475.187610993 
12864601.544096094 
12739112.061522951 
12493907.242289199 
12068177.240873553 
11409843.995464697 
10502561.63129406 
9390125.316262938 
8183416.288577037 
7037851.635592662 
6093063.641756527 
5350346.765484014 
4464390.117372627 
2792382.957809162 
779849.8465931944 
-112177.06779137836 
12231089.697054971 
12230860.575904485 
12229638.487705668 
12225033.618090205 
12210046.252283936 
12167667.365053056 
12063487.349075792 
11840364.055710977 
11422991.987833831 
10740068.44092077 
9763116.223700602 
8546306.714079455 
7241249.652123526 
6063921.981858261 
5213898.837846531 
4746857.234944629 
4398370.813521841 
3467690.205152597 
1519301.0992512915 
-22233.16913464693 
-342217.0585814315 
13871406.895814616 
13871011.89127906 
13868887.277295373 
13860824.22910202 
13834554.687523054 
13760875.326915517 
13583368.674356941 
13216196.763996959 
12563892.035122864 
11569939.680153437 
10278076.567909405 
8864455.849801926 
7601000.160615512 
6742125.029103226 
6373520.562051277 
6263472.02615883 
5743790.239579849 
4003934.313972449 
1463112.5299351816 
3184.1710374658724 
-179773.80155175456 
13750755.671386251 
13750115.888945546 
13746649.304130122 
13733413.93182449 
13690290.355394905 
13570457.123637782 
13288147.232231317 
12726709.192167304 
11787195.03955539 
10471731.551231816 
8951697.085794311 
7544554.836017479 
6570428.198632999 
6156955.9503930835 
6082531.764224274 
5749657.149622493 
4329441.60740542 
1676523.7592307609 
-472424.4420821028 
-699710.5650452963 
-337850.3259086136 
12902046.584467975 
12901070.915107511 
12895750.412111007 
12875333.393983856 
12808848.216620874 
12625901.410537887 
12204978.703594286 
11403086.864169298 
10149476.31046865 
8560658.48480922 
6970002.874254078 
5783578.7147374805 
5204415.458464928 
5047031.574433364 
4752568.124313741 
3584546.1084294873 
1192311.5516760573 
-1360503.4797427354 
-1837968.1326460196 
-496328.00970702746 
265938.33133351314 
13561292.590860581 
13559889.932292137 
13552198.955403298 
13522560.800982302 
13426143.04615416 
13163433.67733151 
12573331.861572536 
11499154.105121827 
9943079.05749738 
8189474.850266894 
6715536.268959368 
5875569.8453839375 
5568034.24585823 
5237945.830875421 
4258017.028121031 
2239432.9339206954 
-231891.02127770497 
-1398205.4213859725 
-474539.463752976 
334904.8489171342 
227210.25948055164 
13431699.270366078 
13429796.014403896 
13419312.258884955 
13378773.072021997 
13247050.277251195 
12891502.291785335 
12111239.201276802 
10755180.737567063 
8947681.844183624 
7174318.3610358015 
5968176.7176174205 
5431728.395749038 
5081410.41233151 
4193019.448508844 
2506154.932806784 
370921.722429693 
-1145040.962495311 
-757004.9294159109 
119258.2410982998 
-213630.19977202392 
-632975.2876491752 
13251561.696966536 
13249121.66036495 
13235631.044282332 
13183322.521785095 
13013564.469814071 
12559197.281629775 
11583101.617772572 
9960747.63519613 
7979012.548380494 
6325808.12931228 
5449286.966649594 
5009168.339190939 
4274712.12796511 
2795370.1123237833 
888628.8432156029 
-487955.8554317732 
-846403.365319992 
-175721.9615315886 
-191257.34532744717 
-177866.931924497 
458266.34999897936 
13475754.531552143 
13472796.75226545 
13456396.553857863 
13392675.021839656 
13186105.094494898 
12637090.869097596 
11478910.727088178 
9629333.876435483 
7555329.939555943 
6116792.043057844 
5536946.259853811 
4928092.6649017725 
3626711.222799505 
1942529.6807405015 
428076.6171849366 
-68293.19920974516 
111096.1173181298 
-5743.968997409713 
-169739.31142363563 
-58921.242122971744 
77284.02300494537 
13327408.353376076 
13324016.173026064 
13305168.877468199 
13231833.365071917 
12994302.98334015 
12366342.467850894 
11059925.754676858 
9039179.36156362 
6936161.166801388 
5733260.532627246 
5358517.993393149 
4404100.958641654 
2576144.662862165 
1194683.6505112413 
352970.63920958806 
3811.9917079755796 
142460.72101487056 
-331080.59341570234 
52204.39479486144 
-370638.43425131583 
-1692103.7938313477 
13390726.487653084 
13387044.223292317 
13366560.182951208 
13286787.63392036 
13028550.255122162 
12348089.919941619 
10944778.208351843 
8818645.93118049 
6717957.206056893 
5694667.62485811 
5426796.423311794 