<?xml version="1.0"?>
<VTKFile type="UnstructuredGrid" version="0.1" byte_order="LittleEndian" compressor="vtkZLibDataCompressor">
<UnstructuredGrid>
<Piece NumberOfPoints="441" NumberOfCells="400">
<PointData>
<DataArray type="Float64" Name="displacement" NumberOfComponents="3" format="ascii" >
0.0 8.910960922134749e-10  0.
-4.453249377798396e-16 8.910957705696188e-10  0.
-1.7585976698767697e-15 8.910941644257137e-10  0.
-5.98855108433175e-15 8.910884570768215e-10  0.
-1.850636775697644e-14 8.910702307569532e-10  0.
-5.2311511951233117e-14 8.910170689244388e-10  0.
-1.3598841276919246e-13 8.908746159725078e-10  0.
-3.2669759285845004e-13 8.905222032110372e-10  0.
-7.284956401697164e-13 8.897137259891394e-10  0.
-1.5137088054307508e-12 8.879868874570288e-10  0.
-2.9410200615393916e-12 8.845406329224631e-10  0.
-5.359543910874444e-12 8.780940998575309e-10  0.
-9.185587585060058e-12 8.667596219814601e-10  0.
-1.484117311180598e-11 8.479818963929259e-10  0.
-2.2652375453972887e-11 8.186061446040529e-10  0.
-3.272122704229773e-11 7.751293387325352e-10  0.
-4.4803942140731873e-11 7.141547434326452e-10  0.
-5.826245144536125e-11 6.330304441958955e-10  0.
-7.235558240090896e-11 5.310867972179961e-10  0.
-9.116924985068775e-11 4.177388171158524e-10  0.
-1.8842959734046266e-10 4.2540351427668964e-10  0.
0.0 2.6253122080621053e-09  0.
-9.809619548869995e-16 2.6253115964518327e-09  0.
-4.029473235334946e-15 2.6253084142433282e-09  0.
-1.4288526489090895e-14 2.6252965242607935e-09  0.
-4.584773009394449e-14 2.6252567168637525e-09  0.
-1.34112835247892e-13 2.6251355431610875e-09  0.
-3.5958962475266777e-13 2.6247981844376085e-09  0.
-8.881750227218528e-13 2.623934656788774e-09  0.
-2.0301428226226794e-12 2.6218927661449194e-09  0.
-4.312003583259286e-12 2.617413215175727e-09  0.
-8.541947639892567e-12 2.6082602129334903e-09  0.
-1.5833795797809525e-11 2.5907811187890953e-09  0.
-2.7544017457128908e-11 2.5594891985916733e-09  0.
-4.508156021733664e-11 2.506829142825887e-09  0.
-6.957916608960704e-11 2.423325934570785e-09  0.
-1.0146656603660492e-10 2.2982991945450677e-09  0.
-1.400536207942301e-10 2.1212289448553467e-09  0.
-1.8338575517793605e-10 1.88379601834026e-09  0.
-2.3016431306753447e-10 1.5841248544613422e-09  0.
-3.043799480227486e-10 1.2595499453559585e-09  0.
-7.291612203346506e-10 1.33774700296085e-09  0.
0.0 1.289017982270607e-08  0.
-3.638750909497751e-15 1.289017776181815e-08  0.
-1.5584460372862333e-14 1.2890166656821271e-08  0.
-5.765217019998769e-14 1.2890123359036437e-08  0.
-1.9234830478671842e-13 1.2889972428879293e-08  0.
-5.828502274685394e-13 1.2889495781398577e-08  0.
-1.612930105815904e-12 1.2888124054289595e-08  0.
-4.097450073362584e-12 1.2884507440017297e-08  0.
-9.601477653743462e-12 1.287572812588903e-08  0.
-2.0844258258246797e-11 1.2856016643193566e-08  0.
-4.2089330222935135e-11 1.2814914188101677e-08  0.
-7.932825210632895e-11 1.273502039018184e-08  0.
-1.3999819637800737e-10 1.2589778266944335e-08  0.
-2.3199011385540425e-10 1.2342100987357752e-08  0.
-3.618607966045612e-10 1.1944883527579816e-08  0.
-5.324513266453474e-10 1.1344379958246595e-08  0.
-7.405101339975962e-10 1.048697111635315e-08  0.
-9.758291294084432e-10 9.329683861458661e-09  0.
-1.2321117742399986e-09 7.864147311732901e-09  0.
-1.6416112011472472e-09 6.28761971892658e-09  0.
-3.895480587543677e-09 6.782297238226837e-09  0.
0.0 5.640155541713459e-08  0.
-1.2144529437371775e-14 5.640154897088569e-08  0.
-5.40874898472723e-14 5.640151305984727e-08  0.
-2.0814144463919703e-13 5.640136733723394e-08  0.
-7.201033255079163e-13 5.640083992536254e-08  0.
-2.2545537713965085e-12 5.639911680596482e-08  0.
-6.423127392823446e-12 5.639400574456711e-08  0.
-1.6740844787673912e-11 5.638016642325709e-08  0.
-4.011758389926585e-11 5.634578053786561e-08  0.
-8.880412351884387e-11 5.626700323655391e-08  0.
-1.8234699680946237e-10 5.6099861432528346e-08  0.
-3.4864417230551275e-10 5.577012977792967e-08  0.
-6.228222736330214e-10 5.516313811430428e-08  0.
-1.042725112443629e-09 5.4117098343298125e-08  0.
-1.6405085068571444e-09 5.242468878493406e-08  0.
-2.4312963616430578e-09 4.984740995516998e-08  0.
-3.401794666639693e-09 4.614533033545807e-08  0.
-4.5070651275097536e-09 4.112541904198511e-08  0.
-5.730754476208744e-09 3.4764137547043914e-08  0.
-7.745621963420575e-09 2.8064371452846857e-08  0.
-1.7776528358187998e-08 3.0676823988837907e-08  0.
0.0 2.120343034367975e-07  0.
-3.6933522399531205e-14 2.120342850857639e-07  0.
-1.7061929478289497e-13 2.120341796293211e-07  0.
-6.811529148438265e-13 2.1203373561710852e-07  0.
-2.4370302438557156e-12 2.1203207239033989e-07  0.
-7.861303197982715e-12 2.120264695273946e-07  0.
-2.298883459985077e-11 2.1200940125403566e-07  0.
-6.127919186923575e-11 2.1196211784260464e-07  0.
-1.4968562988180013e-10 2.1184235091933253e-07  0.
-3.3671094128404107e-10 2.115635473257176e-07  0.
-7.006655579032028e-10 2.1096424020239008e-07  0.
-1.3543303099863173e-09 2.0976953079314698e-07  0.
-2.4407151899930295e-09 2.075521531498802e-07  0.
-4.114785083531142e-09 2.03706912550013e-07  0.
-6.509265456397107e-09 1.9745646370275081e-07  0.
-9.688509435093828e-09 1.8790529964358536e-07  0.
-1.3603367816423526e-08 1.7415198985783314e-07  0.
-1.808618466556331e-08 1.5548044976520057e-07  0.
-2.3148806226267688e-08 1.3191355188022143e-07  0.
-3.176356016393441e-08 1.0791913910308232e-07  0.
-7.002297304092711e-08 1.1989661056801687e-07  0.
0.0 6.745443965545539e-07  0.
-1.029148178233548e-13 6.745443488621e-07  0.
-4.918045370551118e-13 6.745440667939608e-07  0.
-2.030933425578506e-12 6.745428383310757e-07  0.
-7.49233757023964e-12 6.745380908229879e-07  0.
-2.4823633594523782e-11 6.745216571109305e-07  0.
-7.425681460192052e-11 6.744704378590316e-07  0.
-2.016785376144312e-10 6.743258973893046e-07  0.
-5.000882414483459e-10 6.739544723578527e-07  0.
-1.1381171022239004e-09 6.73080578368654e-07  0.
-2.388960297873513e-09 6.711883233587637e-07  0.
-4.645872744485185e-09 6.673996013814277e-07  0.
-8.405258471125002e-09 6.603544759835894e-07  0.
-1.4200309782531819e-08 6.481390494139173e-07  0.
-2.248063290127604e-08 6.28316587731281e-07  0.
-3.3455625856297875e-08 5.981096665337859e-07  0.
-4.6951925015848015e-08 5.547610165993922e-07  0.
-6.245238130347356e-08 4.961817066039511e-07  0.
-8.03906059575481e-08 4.2313219809382487e-07  0.
-1.1207627016378661e-07 3.528738864223112e-07  0.
-2.3528946371079248e-07 3.999913263748483e-07  0.
0.0 1.7848288639905936e-06  0.
-2.63653719424543e-13 1.784828750583538e-06  0.
-1.2996846048654576e-12 1.7848280619049313e-06  0.
-5.535361544269566e-12 1.7848249688400358e-06  0.
-2.0994006841521755e-11 1.7848126749291029e-06  0.
-7.121800652815544e-11 1.7847690919223205e-06  0.
-2.17152996818419e-10 1.7846306512945012e-06  0.
-5.984836670199876e-10 1.78423447287743e-06  0.
-1.4995206241258816e-09 1.7832071233754794e-06  0.
-3.4349135664689972e-09 1.7807790365242689e-06  0.
-7.23187766494728e-09 1.7755196660620796e-06  0.
-1.4064346290404287e-08 1.7650243807151135e-06  0.
-2.538179927761105e-08 1.745635008697678e-06  0.
-4.269068622841631e-08 1.7123200925237545e-06  0.
-6.719027839513655e-08 1.6588498531856385e-06  0.
-9.934044592890682e-08 1.578353917598999e-06  0.
-1.3853769914870832e-07 1.4643049977186631e-06  0.
-1.8353201475256437e-07 1.3124098496137651e-06  0.
-2.3729358280611226e-07 1.1280627455661275e-06  0.
-3.362588857162847e-07 9.681960337032148e-07  0.
-6.650651895150882e-07 1.1247625507618821e-06  0.
0.0 3.85529653868587e-06  0.
-6.222013110473515e-13 3.855296291963781e-06  0.
-3.154994709480427e-12 3.855294757211372e-06  0.
-1.38177712979519e-11 3.8552876698342015e-06  0.
-5.3723346268010495e-11 3.855258783927892e-06  0.
-1.8602815878559807e-10 3.855154240588621e-06  0.
-5.761598332108987e-10 3.854817038811192e-06  0.
-1.60476062137983e-09 3.853842852348382e-06  0.
-4.043348911272637e-09 3.851307377563209e-06  0.
-9.270803509172567e-09 3.8453269760353525e-06  0.
-1.945550639555967e-08 3.8324677663627346e-06  0.
-3.7573958687808113e-08 3.807119370536327e-06  0.
-6.712885176937766e-08 3.7610634608262924e-06  0.
-1.1149494151199897e-07 3.683532794037709e-06  0.
-1.7299005488852247e-07 3.561986024419847e-06  0.
-2.519422687904909e-07 3.383637645235304e-06  0.
-3.463572252305676e-07 3.1377378454959264e-06  0.
-4.542094467740926e-07 2.8204681395800508e-06  0.
-5.889466032832081e-07 2.4568839717648865e-06  0.
-8.476030061559067e-07 2.2039043783221556e-06  0.
-1.5586188645126157e-06 2.6343138170236334e-06  0.
0.0 6.710341423449829e-06  0.
-1.3549633776692874e-12 6.710340932320803e-06  0.
-7.04763227413319e-12 6.710337810014633e-06  0.
-3.164920311501135e-11 6.710323027398799e-06  0.
-1.2579155314835396e-10 6.7102614219405e-06  0.
-4.433342585713706e-10 6.710034469308223e-06  0.
-1.3901123311222292e-09 6.70929366874365e-06  0.
-3.897406228900992e-09 6.707142179881006e-06  0.
-9.828169663971687e-09 6.701551930391398e-06  0.
-2.2429973233642135e-08 6.68847865794078e-06  0.
-4.661472140093078e-08 6.660794493751765e-06  0.
-8.874583105595984e-08 6.607393732139158e-06  0.
-1.5567294220308665e-07 6.513028057705026e-06  0.
-2.5303284472422876e-07 6.359395837229109e-06  0.
-3.8327172300705813e-07 6.127655174746266e-06  0.
-5.442974065843151e-07 5.801973038019167e-06  0.
-7.303945372196206e-07 5.3741355013745e-06  0.
-9.412082188241815e-07 4.855494523326875e-06  0.
-1.2220471398173486e-06 4.331995484000245e-06  0.
-1.779035700041367e-06 4.1544283590363035e-06  0.
-2.996328569975353e-06 5.106395752947411e-06  0.
0.0 9.51434384877107e-06  0.
-2.733118284047802e-12 9.514342950118318e-06  0.
-1.4543035270852591e-11 9.514337124448714e-06  0.
-6.678257452792091e-11 9.514308923412242e-06  0.
-2.706311260891548e-10 9.514189068876987e-06  0.
-9.68216285963072e-10 9.513740806562685e-06  0.
-3.064428327719513e-09 9.512264495967171e-06  0.
-8.616833205322535e-09 9.5079705175427e-06  0.
-2.164973073052216e-08 9.496886938191245e-06  0.
-4.891379597075159e-08 9.47134990874808e-06  0.
-1.00029391104018e-07 9.418507126906226e-06  0.
-1.8637054528725977e-07 9.319700650329777e-06  0.
-3.183835932933278e-07 9.151768844718931e-06  0.
-5.019355019918985e-07 8.890816035197472e-06  0.
-7.350695285903486e-07 8.517965044938913e-06  0.
-1.0075583589929073e-06 8.025751067580008e-06  0.
-1.3068895360132265e-06 7.426564675807946e-06  0.
-1.6444671849615567e-06 6.781303171008527e-06  0.
-2.1366979370069646e-06 6.313350996578014e-06  0.
-3.1128403147491104e-06 6.628207040725649e-06  0.
-4.7418905482348775e-06 8.261992984967985e-06  0.
0.0 1.1692445034444708e-05  0.
-5.136501980098947e-12 1.1692443510732432e-05  0.
-2.7891667393339545e-11 1.1692433459758701e-05  0.
-1.3064458531737496e-10 1.1692383837555425e-05  0.
-5.38546835790647e-10 1.1692169271491417e-05  0.
-1.951423215830438e-09 1.169135638844214e-05  0.
-6.218805754150281e-09 1.1688661708136524e-05  0.
-1.7483506001878154e-08 1.1680836574889827e-05  0.
-4.3591068207670514e-08 1.1660857644800271e-05  0.
-9.701418855152146e-08 1.1615766132769448e-05  0.
-1.9407175367867855e-07 1.1525258183724843e-05  0.
-3.514753621165575e-07 1.1362687670958352e-05  0.
-5.8047645700469e-07 1.1099723312722271e-05  0.
-8.807035559358489e-07 1.0714364205585115e-05  0.
-1.2373602561408754e-06 1.0199727988290677e-05  0.
-1.6251530652387496e-06 9.571978545515394e-06  0.
-2.0276866181500816e-06 8.885054351840969e-06  0.
-2.493441320023227e-06 8.294907217039148e-06  0.
-3.2497667720304656e-06 8.238381615167753e-06  0.
-4.643597843507443e-06 9.439209571711106e-06  0.
-6.3939669584232055e-06 1.1517364153571965e-05  0.
0.0 1.3824801017770654e-05  0.
-9.033941665668004e-12 1.3824798617438932e-05  0.
-4.9948445977762135e-11 1.3824782537104933e-05  0.
-2.3811345609211995e-10 1.3824701750032245e-05  0.
-9.964673986412247e-10 1.3824347067323892e-05  0.
-3.65029889390506e-09 1.3822988403859893e-05  0.
-1.1690636998663245e-08 1.3818463141350055e-05  0.
-3.2783096337244316e-08 1.3805373251193173e-05  0.
-8.084756704061849e-08 1.377242902906264e-05  0.
-1.7648747058170244e-07 1.3699964551819582e-05  0.
-3.4360308159429916e-07 1.3559821688248396e-05  0.
-6.014386748609915e-07 1.3319981389661611e-05  0.
-9.546688413147865e-07 1.2954208045227445e-05  0.
-1.3866612767033032e-06 1.2453339875454452e-05  0.
-1.8622690538664277e-06 1.1833095084366941e-05  0.
-2.3438969089368882e-06 1.1139030488549688e-05  0.
-2.8331692349156628e-06 1.0475806458762389e-05  0.
-3.460091322596571e-06 1.0127142481388345e-05  0.
-4.547211494687878e-06 1.0716683864118371e-05  0.
-6.2168258163415076e-06 1.2634971551799562e-05  0.
-7.87952842508432e-06 1.4497692729357177e-05  0.
0.0 1.6423522517518113e-05  0.
-1.4887567079634375e-11 1.642351902113909e-05  0.
-8.36324891526777e-11 1.6423495274523005e-05  0.
-4.04918908873771e-10 1.6423374116576794e-05  0.
-1.7170713525554556e-09 1.6422835002754033e-05  0.
-6.348946715315416e-09 1.642075003135364e-05  0.
-2.0404540897872366e-08 1.6413782140658263e-05  0.
-5.697391060962146e-08 1.6393737214492442e-05  0.
-1.3863245789559672e-07 1.6344138463995747e-05  0.
-2.9582069649373e-07 1.623827415801404e-05  0.
-5.582250972603792e-07 1.604221726263017e-05  0.
-9.404233130936853e-07 1.5724835081579578e-05  0.
-1.4297402960601126e-06 1.527161851259286e-05  0.
-1.9859807187816694e-06 1.4693701288995604e-05  0.
-2.5575469678030926e-06 1.4027666608566206e-05  0.
-3.119854676543195e-06 1.3339092810087742e-05  0.
-3.73683376871981e-06 1.2789562643857158e-05  0.
-4.654643010297335e-06 1.2804750868313996e-05  0.
-6.153247848899004e-06 1.3985190248392599e-05  0.
-7.922513725163161e-06 1.588848632203091e-05  0.
-9.4477245424226e-06 1.7111040704602228e-05  0.
0.0 1.8838295447148742e-05  0.
-2.302193136988572e-11 1.883829074324579e-05  0.
-1.3112514581344158e-10 1.8838258412300925e-05  0.
-6.434457618908917e-10 1.883809123553952e-05  0.
-2.7598442284178672e-09 1.8837338681741292e-05  0.
-1.0284849346606586e-08 1.883440468158287e-05  0.
-3.312872752689645e-08 1.8824577468103393e-05  0.
-9.199050452891433e-08 1.879649377865262e-05  0.
-2.204548592279054e-07 1.8728301747921044e-05  0.
-4.585974901777934e-07 1.8587573066555547e-05  0.
-8.361327808632507e-07 1.833937850694975e-05  0.
-1.3523507370775189e-06 1.796151826547358e-05  0.
-1.9685450725307258e-06 1.7457600619184117e-05  0.
-2.62622662759034e-06 1.685515807629054e-05  0.
-3.2829836127906904e-06 1.6193797001441185e-05  0.
-3.966705022677242e-06 1.5552906490924383e-05  0.
-4.845186993932993e-06 1.5182440820674602e-05  0.
-6.210592239405373e-06 1.5638380312928504e-05  0.
-8.077449766062456e-06 1.7162632648207645e-05  0.
-9.774901484794342e-06 1.8539715145358246e-05  0.
-1.1123958986346454e-05 1.9531810453511447e-05  0.
0.0 2.1065179722245328e-05  0.
-3.349417743708959e-11 2.1065173875617306e-05  0.
-1.930365161517824e-10 2.1065133281234457e-05  0.
-9.581862887305915e-10 2.1064920982436263e-05  0.
-4.149919861638812e-09 2.1063955906848636e-05  0.
-1.5566169533046403e-08 2.106016816412375e-05  0.
-5.0208290654923335e-08 2.104746463676392e-05  0.
-1.3854956032631957e-07 2.1011421654529495e-05  0.
-3.2671016891654525e-07 2.0925613108503064e-05  0.
-6.614485819058793e-07 2.0754805901201477e-05  0.
-1.1628644067888038e-06 2.0469232599553398e-05  0.
-1.804903752440281e-06 2.0061895343213974e-05  0.
-2.524681346395487e-06 1.9551964890435973e-05  0.
-3.2681871455187625e-06 1.8967630038190757e-05  0.
-4.042989696176881e-06 1.833727817094439e-05  0.
-4.953104490298086e-06 1.7776927999035164e-05  0.
-6.240248672180513e-06 1.7677607615666996e-05  0.
-8.04537570727265e-06 1.8573340058397758e-05  0.
-9.974815078204691e-06 2.0053087842457035e-05  0.
-1.1431311761108724e-05 2.09212444304724e-05  0.
-1.2741903687219291e-05 2.2242084978755886e-05  0.
0.0 2.3579832849912976e-05  0.
-4.5897621062863485e-11 2.3579826197918747e-05  0.
-2.671490648138482e-10 2.357977961397241e-05  0.
-1.338870184692602e-09 2.3579533645040692e-05  0.
-5.845936428417524e-09 2.3578406219068444e-05  0.
-2.2045592913019663e-08 2.3573956488823345e-05  0.
-7.116109859571628e-08 2.3559020048487236e-05  0.
-1.9513567445599576e-07 2.3516937962226653e-05  0.
-4.528285961881266e-07 2.3418666673404183e-05  0.
-8.92068872784613e-07 2.323008339970626e-05  0.
-1.5117996540740835e-06 2.2931961278135886e-05  0.
-2.256736801225196e-06 2.253380553335647e-05  0.
-3.0588867871075872e-06 2.205854538079867e-05  0.
-3.900948410286578e-06 2.151743841691944e-05  0.
-4.864923006957907e-06 2.0939148568066528e-05  0.
-6.103120268394888e-06 2.0528938243861124e-05  0.
-7.778467000706732e-06 2.080404995312908e-05  0.
-9.749310047144999e-06 2.195274300127904e-05  0.
-1.13579094078864e-05 2.295355663085701e-05  0.
-1.2641306090671431e-05 2.3481611175672403e-05  0.
-1.4025385970052642e-05 2.4839801906489756e-05  0.
0.0 2.5907256956631917e-05  0.
-5.92960490743832e-11 2.5907250102873447e-05  0.
-3.4790922001135567e-10 2.5907201772750226e-05  0.
-1.7572324284573874e-09 2.5906944605048995e-05  0.
-7.72310996196443e-09 2.590575797156028e-05  0.
-2.9248752768684176e-08 2.5901053717007372e-05  0.
-9.444287691586685e-08 2.5885256026158008e-05  0.
-2.574517541734984e-07 2.584103367550149e-05  0.
-5.885824134081634e-07 2.573958649792938e-05  0.
-1.1297649147997653e-06 2.5551618059102216e-05  0.
-1.848710735713545e-06 2.5270597291182077e-05  0.
-2.6666779226502125e-06 2.49180155223476e-05  0.
-3.5448919374021577e-06 2.4506410237390562e-05  0.
-4.525146514030992e-06 2.4024031814462376e-05  0.
-5.731559241428899e-06 2.353696200236246e-05  0.
-7.281594732324959e-06 2.3360400398396523e-05  0.
-9.09090567599669e-06 2.3944567538468458e-05  0.
-1.0835438667285289e-05 2.4968337135247286e-05  0.
-1.2134271788037506e-05 2.5396315895988237e-05  0.
-1.3526167042258918e-05 2.5915791868620523e-05  0.
-1.4717940242136253e-05 2.6725477574156368e-05  0.
0.0 2.8289975619475337e-05  0.
-7.230813727040932e-11 2.8289969361373322e-05  0.
-4.2688680735669133e-10 2.8289924996183547e-05  0.
-2.169127784983309e-09 2.828968752250368e-05  0.
-9.581746510971675e-09 2.8288586162762613e-05  0.
-3.640562372570608e-08 2.8284205316722268e-05  0.
-1.1756220378415989e-07 2.8269491539877482e-05  0.
-3.1885399877299525e-07 2.822852993823371e-05  0.
-7.196534196551512e-07 2.8135987637611777e-05  0.
-1.350131570428501e-06 2.79697824321477e-05  0.
-2.141719065754466e-06 2.773384456062285e-05  0.
-3.0053434597271397e-06 2.7453743575255862e-05  0.
-3.96726583894119e-06 2.712518328476066e-05  0.
-5.123624770819111e-06 2.672275013948401e-05  0.
-6.542816250079662e-06 2.6372556839977754e-05  0.
-8.235185626659045e-06 2.643447696538834e-05  0.
-9.917405407022726e-06 2.7068765053179868e-05  0.
-1.1343382691597026e-05 2.7656910780184907e-05  0.
-1.2742379104228808e-05 2.7817319054545602e-05  0.
-1.4137252950915033e-05 2.8478531772776174e-05  0.
-1.5295531568037097e-05 2.8822938681125904e-05  0.
0.0 3.0696567919703004e-05  0.
-8.327296689739185e-11 3.0696563125298615e-05  0.
-4.937834103315313e-10 3.0696529005707775e-05  0.
-2.5197728000494815e-09 3.069634558881697e-05  0.
-1.1170666938727178e-08 3.069549178019599e-05  0.
-4.253960469683987e-08 3.069208727074376e-05  0.
-1.3736656190490768e-07 3.0680651196480336e-05  0.
-3.711255888860758e-07 3.064894351387411e-05  0.
-8.293984504744831e-07 3.057813110924163e-05  0.
-1.5283747693851661e-06 3.0454028957926152e-05  0.
-2.3656224840098574e-06 3.0285184825427297e-05  0.
-3.2550313469483827e-06 3.009319561300731e-05  0.
-4.305360949395646e-06 2.9862971621752906e-05  0.
-5.638414152146669e-06 2.957076417609968e-05  0.
-7.166183350387443e-06 2.9367303804823955e-05  0.
-8.807219702122135e-06 2.954528194546236e-05  0.
-1.0366077141463897e-05 2.999856279237128e-05  0.
-1.1742486403491193e-05 3.0205929105272874e-05  0.
-1.3281839036388661e-05 3.0379605267813112e-05  0.
-1.4451636558773177e-05 3.083408137288275e-05  0.
-1.591506190813731e-05 3.104188977461182e-05  0.
0.0 3.30583550086573e-05  0.
-9.061744101013677e-11 3.305835240092549e-05  0.
-5.38746542841737e-10 3.305833380162212e-05  0.
-2.756240068190086e-09 3.305823357007606e-05  0.
-1.2245202991182298e-08 3.3057766003537556e-05  0.
-4.669485131545429e-08 3.305589907823123e-05  0.
-1.5077683237254105e-07 3.3049628248935244e-05  0.
-4.063671607543204e-07 3.3032287598041897e-05  0.
-9.025232208518347e-07 3.2993845324678326e-05  0.
-1.6441603891268716e-06 3.2927532989298596e-05  0.
-2.5048742337888244e-06 3.28398331869486e-05  0.
-3.4071208784678634e-06 3.274285571730543e-05  0.
-4.528367149486247e-06 3.2623856018517554e-05  0.
-5.989337995263785e-06 3.2469897650962436e-05  0.
-7.531881226703831e-06 3.238521041129606e-05  0.
-9.063727419674105e-06 3.252021352190836e-05  0.
-1.065256712499241e-05 3.27241509456951e-05  0.
-1.2077661016491255e-05 3.278613819653547e-05  0.
-1.3479384390242924e-05 3.295585575599376e-05  0.
-1.4760981816460544e-05 3.307422046418599e-05  0.
-1.602591348219995e-05 3.317891866018477e-05  0.
0.0 3.545000000000002e-05  0.
-9.320469757822635e-11 3.545000000000002e-05  0.
-5.546122525956967e-10 3.545000000000002e-05  0.
-2.8398149062135382e-09 3.545000000000002e-05  0.
-1.2625487992860883e-08 3.545000000000002e-05  0.
-4.8166580513458874e-08 3.545000000000002e-05  0.
-1.5552527890378854e-07 3.545000000000002e-05  0.
-4.188175203676645e-07 3.545000000000002e-05  0.
-9.281993711448067e-07 3.545000000000002e-05  0.
-1.6842726528524699e-06 3.545000000000002e-05  0.
-2.5519915524483254e-06 3.545000000000002e-05  0.
-3.4581392278260592e-06 3.545000000000002e-05  0.
-4.606816403094392e-06 3.545000000000002e-05  0.
-6.113784338356632e-06 3.545000000000002e-05  0.
-7.647922399432413e-06 3.545000000000002e-05  0.
-9.134145054602232e-06 3.545000000000002e-05  0.
-1.0770400289047697e-05 3.545000000000002e-05  0.
-1.2182421897193001e-05 3.545000000000002e-05  0.
-1.3475629760152042e-05 3.545000000000002e-05  0.
-1.4974967416623595e-05 3.545000000000002e-05  0.
-1.5906357856670983e-05 3.545000000000002e-05  0.
</DataArray>
<DataArray type="Float64" Name="sigma_xx" NumberOfComponents="1" format="ascii" >
9711.618862362488 
9711.608617324337 
9711.56117945959 
9711.408188461945 
9710.96417738959 
9709.781461497698 
9706.872159664921 
9700.231387421707 
9686.104218148414 
9657.985265421052 
9605.43429276428 
9512.927603538832 
9359.110356538244 
9116.911720891127 
8754.964581697552 
8240.572546380772 
7543.93153802879 
6640.38784939369 
5477.978280798988 
3509.4268177937583 
2197.0224849066067 
33597.71974091873 
33597.69457098038 
33597.574740201744 
33597.17429967101 
33595.97152426396 
33592.664540882375 
33584.2910675843 
33564.66834484594 
33521.91740695342 
33434.97369775738 
33269.30635338675 
32972.56215717691 
32471.415871482266 
31671.33169175994 
30460.96238429329 
28722.276927833904 
26345.693916546275 
23240.405523516907 
19240.101119996627 
12890.237807139378 
8795.790612792227 
150579.0158691011 
150578.92584900418 
150578.48579200223 
150576.96691369577 
150572.26723380052 
150559.0074796253 
150524.68354007913 
150442.73750342283 
150261.42645413737 
149888.00225769202 
149169.20012845163 
147871.34100923967 
145665.93158406022 
142128.53982830947 
136758.6533212089 
129025.17672176978 
118433.26283038076 
104561.27064877859 
86588.40309232472 
58059.175678384905 
39698.64395785281 
557676.476085822 
557676.1845644427 
557674.7258594693 
557669.5493024862 
557653.1318466691 
557605.8496699646 
557481.4202801035 
557180.5491497049 
556508.6400013268 
555116.1534289471 
552426.268249767 
547563.3554529289 
539305.0591139146 
526086.2537923821 
506080.74846681656 
477372.4884463397 
438188.766244754 
386948.5484955081 
320081.68936705485 
212609.20021672896 
143178.89009329278 
1731466.1901761114 
1731465.3267815886 
1731460.9115968486 
1731444.842871926 
1731392.7664297037 
1731240.2159240064 
1730833.7611392187 
1729843.0648604026 
1727621.898470202 
1723017.4661309074 
1714149.6215472836 
1698210.5584497442 
1671360.7312063777 
1628803.2499015997 
1565095.9824417774 
1474700.933754874 
1352614.6363026565 
1194028.8489936192 
985633.6834955955 
646491.2087357219 
426697.25737334276 
4407873.931663996 
4407871.582598675 
4407859.326724399 
4407813.7002452575 
4407663.064468808 
4407215.891361431 
4406014.939709212 
4403079.739941224 
4396513.5873807585 
4382995.245060887 
4357247.708748693 
4311655.349134944 
4236239.921840586 
4119168.715280837 
3947829.933873044 
3710291.334000758 
3396403.857252668 
2994700.474574223 
2463169.7550878534 
1587242.9956362308 
1018311.9338329043 
8921557.252421772 
8921551.368930904 
8921520.106391732 
8921401.360614471 
8921003.201803807 
8919809.859156966 
8916594.170494769 
8908757.507695103 
8891384.260282367 
8856148.533642722 
8790415.170671813 
8677029.717481129 
8495260.097976834 
8223027.867521374 
7840034.742558165 
7330682.075617053 
6684042.582059382 
5879064.673984408 
4804511.583098495 
3013709.603001759 
1851276.0521952822 
13826253.920618277 
13826240.331864985 
13826166.926685268 
13825883.164153952 
13824919.643227432 
13822014.425109224 
13814195.15898039 
13795303.863677375 
13754097.912514031 
13672496.848033449 
13525002.280464726 
13280427.724596953 
12906523.304981723 
12376796.109437004 
11677309.799726322 
10809719.730471285 
9782594.712364625 
8562282.622392878 
6904428.4771834975 
4133110.558470458 
2351820.4035408255 
15890154.171248743 
15890125.130078442 
15889965.914687943 
15889340.926720727 
15887197.298018113 
15880715.256504495 
15863362.881331818 
15822031.273445053 
15733966.630496558 
15565245.535467662 
15273189.281833783 
14814488.521633524 
14158315.41588644 
13300480.31180706 
12271725.906426944 
11132043.867335435 
9933647.031781843 
8602580.878865471 
6700693.7677360345 
3626308.760556038 
1732438.4971801136 
13985155.920386195 
13985098.177553289 
13984777.359808164 
13983500.909165423 
13979087.21518788 
13965735.20623507 
13930307.579461884 
13847526.936056571 
13676407.066023733 
13362122.348698074 
12847418.784701206 
12094013.498869043 
11107627.478791695 
9954282.623107875 
8755045.555237774 
7646955.032490163 
6686548.338332959 
5648568.302165974 
3913943.804628148 
1536581.5420548073 
301286.8680594886 
12095235.644717447 
12095128.32678018 
12094524.852882367 
12092094.917478979 
12083637.137607101 
12058087.46542353 
11991082.23956612 
11838178.565604012 
11533558.588286653 
11002231.01941409 
10189729.659897184 
9101672.719328923 
7833134.212328404 
6562623.397995392 
5499048.9284238005 
4775506.198708874 
4276883.300384272 
3446136.4372655964 
1688600.1465486416 
72830.29786553443 
-386655.08483631443 
13278555.965911716 
13278369.137325542 
13277307.208903199 
13272986.214926235 
13257867.026269231 
13212327.354421578 
13094564.547497723 
12833222.12066051 
12334886.48241419 
11517921.580912344 
10369240.89669945 
8994586.318772404 
7620276.009825815 
6520816.836283404 
5881301.785161514 
5633041.167422565 
5268498.024026053 
3934225.476523471 
1601195.6657765035 
58750.34616092971 
-176338.1522411037 
14072856.94936119 
14072551.81696121 
14070800.961544566 
14063611.775003241 
14038353.731452921 
13962583.821027786 
13769733.832475936 
13355066.027435105 
12603547.349957881 
11458852.262557903 
10005731.41063929 
8498406.102730937 
7275364.055590704 
6583104.2483140025 
6378680.2240275415 
6207277.569505312 
5226660.398910424 
2888096.019236497 
420149.37086610706 
-437050.99098356755 
-345902.31671508244 
13026603.758279327 
13026135.168806676 
13023424.079112362 
13012204.668965884 
12972661.219440449 
12854593.596664233 
12559108.12614482 
11945168.247654075 
10894522.485936625 
9426118.967824128 
7778341.446983022 
6352299.963432692 
5481371.286006811 
5175625.647374135 
5020898.997994408 
4244040.663311602 
2199861.8589689634 
-556366.747245948 
-1744298.7091971007 
-817172.695964249 
-73090.37941358931 
13307539.610066157 
13306861.92534733 
13302913.133925864 
13286462.662613917 
13228339.14260962 
13055650.544867162 
12630756.34360207 
11778960.997725915 
10410394.363001993 
8679623.750064563 
7006169.123216571 
5850275.895492973 
5347747.343852568 
5108564.355718978 
4451887.616205388 
2750870.6584422477 
162351.0398229725 
-1622505.5511054988 
-1105600.7450650965 
150079.45372183569 
512235.0533687789 
13590207.990429543 
13589283.945614763 
13583867.468319602 
13561177.754781116 
13480861.068651646 
13243389.824558493 
12668588.356240034 
11556726.965884376 
9886459.281966867 
8004053.239982444 
6485527.375868456 
5672149.890083833 
5327474.410178604 
4725122.692899963 
3286880.9740296905 
1120378.5568272592 
-860011.6076519671 
-931896.6519734103 
115982.60670656098 
48981.2520892258 
-362732.91755241295 
13218848.537850771 
13217659.239831246 
13210654.071252618 
13181178.222050376 
13076697.086111497 
12769141.727429952 
12035672.503180437 
10663943.797028258 
8739126.07557172 
6833979.916568813 
5602704.496047473 
5045194.73175798 
4506194.8451499045 
3311783.402892049 
1377131.6176582756 
-368627.69404374633 
-1028676.3842836943 
-381452.7118462366 
-24495.118393152487 
-258497.19065265058 
-180260.04040884395 
13441440.209063571 
13439994.228924613 
13431445.165124115 
13395349.450021025 
13267278.267029855 
12891684.160123538 
12007103.228850953 
10400914.301724322 
8287476.547299348 
6467657.170784837 
5572042.00649551 
5079725.482237435 
4037012.953899607 
2402001.565076178 
657344.7732702771 
-237880.522176123 
35459.829305081774 
33722.04267218802 
-139472.5963087758 
29207.321182650834 
51929.84214581235 
13382446.027999885 
13380784.183922887 
13370932.62883878 
13329236.42417258 
13181198.105549999 
12748269.052650023 
11738303.69600352 
9946395.656871974 
7712347.693334325 
6030656.994792485 
5433119.795982273 
4830783.076318939 
3174682.166239101 
1481964.2918199426 
497110.9581508038 
3174.7170806648355 
247986.63328887464 
-129923.04588537954 
-106285.91456247313 
-345614.88797732966 
-1329784.6261167163 
13340320.927634714 
13338514.695214054 
13327790.082806356 
13282332.838831035 
13120881.275275355 
12649553.230056942 
11556514.309151521 
9645675.231255788 
7348289.307785561 
5787760.412330963 
5388957.283722311 
4623020.829331875 
2484204.5092178076 
989789.9121914578 