<?xml version="1.0"?>
<VTKFile type="UnstructuredGrid" version="0.1" byte_order="LittleEndian" compressor="vtkZLibDataCompressor">
<UnstructuredGrid>
<Piece NumberOfPoints="441" NumberOfCells="400">
<PointData>
<DataArray type="Float64" Name="displacement" NumberOfComponents="3" format="ascii" >
0.0 4.841155914545824e-18  0.
4.296284191438963e-22 4.845004951781213e-18  0.
-2.2267367515827803e-24 4.845381441822404e-18  0.
-9.048898470797731e-25 4.8453787586525195e-18  0.
-1.886724252036985e-24 4.8453783601001655e-18  0.
-1.0765547270907475e-23 4.8453707107869605e-18  0.
-3.1893312721248557e-22 4.845144191541856e-18  0.
-6.10406188739242e-22 4.8434171495608926e-18  0.
-2.7984174957750052e-21 4.839848407779799e-18  0.
-4.526036886255235e-21 4.832045359153644e-18  0.
-9.716090788266814e-21 4.8162002449615286e-18  0.
-1.7941138637246014e-20 4.787005689519176e-18  0.
-3.3059695670347196e-20 4.739443414452263e-18  0.
-5.3486254239681124e-20 4.66489945821811e-18  0.
-9.650990055577483e-20 4.525234469503972e-18  0.
-1.4019178190155587e-19 4.304690707597761e-18  0.
-2.0013957856303075e-19 3.9824881868706e-18  0.
-2.56761080709234e-19 3.555028151832841e-18  0.
-3.3117366488064523e-19 3.0089191227227164e-18  0.
-4.1645880899118477e-19 2.3417904005999466e-18  0.
-1.1733978497438702e-18 2.354991952276377e-18  0.
0.0 5.0246795609247625e-17  0.
-2.2532462320363337e-22 5.024951891357756e-17  0.
-3.1426556466332644e-23 5.0249405228837676e-17  0.
-1.764226265876354e-23 5.024937922790154e-17  0.
-7.26039451634313e-23 5.024935910678908e-17  0.
-3.000476469838845e-22 5.0249212991237e-17  0.
-1.7577863608811324e-21 5.024761620569106e-17  0.
-4.980868665414882e-21 5.023926899256452e-17  0.
-1.4922441831065743e-20 5.022438885203242e-17  0.
-3.8889321518176104e-20 5.0173076559087694e-17  0.
-8.567838697275786e-20 5.006392740923835e-17  0.
-1.7211429358087504e-19 4.984043915495362e-17  0.
-3.226041332572859e-19 4.939739414146411e-17  0.
-5.701234734440858e-19 4.858315045074521e-17  0.
-9.369313067404068e-19 4.7213900746922565e-17  0.
-1.4350110645306156e-18 4.506676132300547e-17  0.
-2.065740044808639e-18 4.1883005726954143e-17  0.
-2.783443022557168e-18 3.748220122724023e-17  0.
-3.554885242577092e-18 3.170796603725587e-17  0.
-4.536073604527616e-18 2.4871239820839824e-17  0.
-1.3516844756555036e-17 2.531348817382891e-17  0.
0.0 9.27014823943016e-16  0.
-9.930829936528822e-22 9.270075195956316e-16  0.
-6.24914057714079e-22 9.27003932412072e-16  0.
-4.107259446117227e-23 9.270034361778437e-16  0.
-1.161298075297262e-21 9.27002278555851e-16  0.
-4.98269141779427e-21 9.269953887912404e-16  0.
-2.0751293874925116e-20 9.269718562031973e-16  0.
-7.170480236822929e-20 9.268959842707928e-16  0.
-2.0998127547575932e-19 9.266550574371752e-16  0.
-5.53930311712673e-19 9.259969986213985e-16  0.
-1.302211833194877e-18 9.243737706368523e-16  0.
-2.767386595356053e-18 9.207797595829608e-16  0.
-5.426399649035147e-18 9.135304056837967e-16  0.
-9.834345283207166e-18 8.999673417380481e-16  0.
-1.652619072284806e-17 8.764831437310581e-16  0.
-2.5869216801342955e-17 8.386025159743519e-16  0.
-3.785734449443516e-17 7.815500542649041e-16  0.
-5.189674039625135e-17 7.010685177285126e-16  0.
-6.694438075538096e-17 5.946794812240574e-16  0.
-8.62631197163555e-17 4.674464160663405e-16  0.
-2.5669814874580804e-16 4.774481414626134e-16  0.
0.0 1.526087913696824e-14  0.
-3.702153425074728e-21 1.5260875728883498e-14  0.
-1.0573610836871966e-21 1.5260874000706084e-14  0.
-6.701815121655086e-22 1.5260872091760452e-14  0.
-8.155874187081893e-21 1.526086402795776e-14  0.
-5.0528484491296365e-20 1.5260817012429823e-14  0.
-2.2432251411988834e-19 1.526059031182808e-14  0.
-8.098866952976643e-19 1.5259730107637913e-14  0.
-2.5502195633166893e-18 1.525689549997577e-14  0.
-7.076358034337967e-18 1.5248706521987646e-14  0.
-1.75426661646043e-17 1.5227567803285316e-14  0.
-3.9234373598129497e-17 1.517843709059158e-14  0.
-8.001604004349979e-17 1.5074631547721564e-14  0.
-1.497866512240787e-16 1.4873642543028924e-14  0.
-2.587683435025468e-16 1.451494831809059e-14  0.
-4.144578156027079e-16 1.3921992624035822e-14  0.
-6.178678663606753e-16 1.3010457925668422e-14  0.
-8.598981470021447e-16 1.1703139081546819e-14  0.
-1.1229783841333334e-15 9.95226291838869e-15  0.
-1.464658271705331e-15 7.844219954718362e-15  0.
-4.335551953095935e-15 8.041174395218594e-15  0.
0.0 2.2205220023922994e-13  0.
-5.885564971854694e-21 2.2205219994164477e-13  0.
-5.667009995990827e-22 2.2205220280848526e-13  0.
-4.652445321779253e-21 2.220521992675127e-13  0.
-5.717067425414886e-20 2.220521567082295e-13  0.
-3.7442904977880225e-19 2.2205183587697584e-13  0.
-1.8527378184222576e-18 2.2205011752064261e-13  0.
-7.548719158345959e-18 2.220426157812072e-13  0.
-2.6018428697690055e-17 2.2201523659625565e-13  0.
-7.785557463410381e-17 2.219291968436824e-13  0.
-2.0531753126150137e-16 2.2169177265186918e-13  0.
-4.84231887756464e-16 2.2110812432037973e-13  0.
-1.0315541610491067e-15 2.1981540122247865e-13  0.
-2.0026490802403116e-15 2.1721198553373822e-13  0.
-3.565866416311853e-15 2.124107307302741e-13  0.
-5.856702358619333e-15 2.0425434413960714e-13  0.
-8.910697089290523e-15 1.914309509043614e-13  0.
-1.2606954712455074e-14 1.7270243291227745e-13  0.
-1.66815127415268e-14 1.472639145344597e-13  0.
-2.2053289188679536e-14 1.1642815447749034e-13  0.
-6.483604178364423e-14 1.1985427049504926e-13  0.
0.0 2.831381503016507e-12  0.
-3.196852447522409e-21 2.8313815053480652e-12  0.
-1.6013907359286077e-21 2.831381504675914e-12  0.
-2.81846472938308e-20 2.831381486321344e-12  0.
-2.919968718650611e-19 2.831381269038869e-12  0.
-2.1491412993060028e-18 2.831379584941986e-12  0.
-1.2471605509267095e-17 2.8313689241913547e-12  0.
-5.78217383632945e-17 2.83131552481171e-12  0.
-2.224785395170027e-16 2.831096170136258e-12  0.
-7.258452974076286e-16 2.8303377575350056e-12  0.
-2.0582966122908704e-15 2.828074220512206e-12  0.
-5.148346616936948e-15 2.822140781620208e-12  0.
-1.1521925824144361e-14 2.8082790193444002e-12  0.
-2.3288552851866926e-14 2.7791061580259865e-12  0.
-4.2885384075453364e-14 2.723301988830941e-12  0.
-7.238982940250463e-14 2.6256057964304553e-12  0.
-1.1263155919926308e-13 2.468177600203346e-12  0.
-1.6220885760751952e-13 2.23365010020264e-12  0.
-2.1774075207993163e-13 1.9102126424231275e-12  0.
-2.9221334129243654e-13 1.5155510745588397e-12  0.
-8.515300516501513e-13 1.5679562315192624e-12  0.
0.0 3.132778765656926e-11  0.
-1.0782266639590474e-20 3.1327787647445354e-11  0.
-5.910422460674522e-21 3.1327787641210544e-11  0.
-1.1214995634656548e-19 3.13277875707508e-11  0.
-1.2015478587351482e-18 3.1327786798174844e-11  0.
-9.952639453318605e-18 3.132777976028439e-11  0.
-6.71105376343159e-17 3.1327727980096435e-11  0.
-3.620664721632835e-16 3.132742250359856e-11  0.
-1.5693790829866201e-15 3.132599072444812e-11  0.
-5.672583529381114e-15 3.132045547482963e-11  0.
-1.7438677112949342e-14 3.130239189218768e-11  0.
-4.668140120674229e-14 3.125141191295676e-11  0.
-1.1031931071104237e-13 3.112494318982458e-11  0.
-2.333578986443241e-13 3.08452492387927e-11  0.
-4.457884402736034e-13 3.0288080860844895e-11  0.
-7.756181327588459e-13 2.927964674671549e-11  0.
-1.2362830469230652e-12 2.7610232468444734e-11  0.
-1.815335716733014e-12 2.5068963597089607e-11  0.
-2.474886603568667e-12 2.1506527010631636e-11  0.
-3.3778180826040972e-12 1.713327854542102e-11  0.
-9.729692471223298e-12 1.7832415869013217e-11  0.
0.0 2.973500759099003e-10  0.
-1.414794755787925e-20 2.9735007592400524e-10  0.
-1.956692725504525e-20 2.973500759175246e-10  0.
-3.709463817734419e-19 2.973500757112919e-10  0.
-4.148781893807132e-18 2.973500732819311e-10  0.
-3.85129954778756e-17 2.9735004880226727e-10  0.
-2.944826822277329e-16 2.973498446707006e-10  0.
-1.8233531349209965e-15 2.973484615041332e-10  0.
-9.074969276831467e-15 2.9734092636968145e-10  0.
-3.659897346763833e-14 2.973080295781138e-10  0.
-1.2364215603957018e-13 2.9718896307234065e-10  0.
-3.564759944834565e-13 2.9682394429365063e-10  0.
-8.96540392245637e-13 2.95854395343226e-10  0.
-1.992690696274255e-12 2.9358853054936863e-10  0.
-3.9660139119221225e-12 2.888661308639015e-10  0.
-7.128696019422849e-12 2.8000126245908977e-10  0.
-1.1667077787348977e-11 2.648873052901982e-10  0.
-1.7488486554716755e-11 2.413374844096462e-10  0.
-2.424961671069404e-11 2.0774670673749958e-10  0.
-3.37231461498289e-11 1.663133159483665e-10  0.
-9.567437512510717e-11 1.743761802174484e-10  0.
0.0 2.3886827280336015e-09  0.
-3.7970856993138985e-21 2.3886827280377924e-09  0.
-6.559551507292789e-20 2.3886827280017587e-09  0.
-1.0447880589059566e-18 2.3886827274938347e-09  0.
-1.2496641890138844e-17 2.388682720903836e-09  0.
-1.2720210964088107e-16 2.3886826483502074e-09  0.
-1.080060059917821e-15 2.3886819782104222e-09  0.
-7.529661613677344e-15 2.388676869415275e-09  0.
-4.254145430969552e-14 2.388645231437902e-09  0.
-1.9412242119050572e-13 2.388487136659229e-09  0.
-7.240408323743353e-13 2.387848274138901e-09  0.
-2.2725593940934124e-12 2.385696786440617e-09  0.
-6.110218372218638e-12 2.379536500660159e-09  0.
-1.4357758316885913e-11 2.3642234293970917e-09  0.
-2.985308931292225e-11 2.330693263997255e-09  0.
-5.561072514077365e-11 2.2651884521856982e-09  0.
-9.357558868081575e-11 2.14991713790904e-09  0.
-1.434067694710158e-10 1.9657882029043766e-09  0.
-2.024363656913542e-10 1.6983946300538657e-09  0.
-2.87526221299205e-10 1.3678426653066378e-09  0.
-7.993899702757043e-10 1.447332231548196e-09  0.
0.0 1.5982581635760802e-08  0.
-8.175584241490666e-21 1.598258163575563e-08  0.
-1.720151280159027e-19 1.5982581635679947e-08  0.
-2.6001142128117273e-18 1.5982581634520415e-08  0.
-3.3294682527205547e-17 1.5982581618752986e-08  0.
-3.65626055982311e-16 1.598258143207602e-08  0.
-3.387444711390752e-15 1.5982579556258385e-08  0.
-2.6078717644892217e-14 1.598256380774336e-08  0.
-1.6448374469959028e-13 1.5982454948427175e-08  0.
-8.414530990135023e-13 1.598184373712944e-08  0.
-3.4946178048460383e-12 1.5979064540152716e-08  0.
-1.1968214513843385e-11 1.596874921717544e-08  0.
-3.465245597170965e-11 1.5936669751077067e-08  0.
-8.629936311305341e-11 1.5851493874399962e-08  0.
-1.882051029149166e-10 1.56547184200992e-08  0.
-3.637584703780241e-10 1.525370184627391e-08  0.
-6.303713697805617e-10 1.4524060679726294e-08  0.
-9.879177709877134e-10 1.332835584005878e-08  0.
-1.421324574278891e-09 1.1561074859569292e-08  0.
-2.066205103618847e-09 9.38232530267837e-09  0.
-5.591448148601106e-09 1.0043909247499731e-08  0.
0.0 8.73726925253105e-08  0.
-2.1729559980749216e-20 8.737269252530627e-08  0.
-3.7931642340521925e-19 8.737269252517478e-08  0.
-5.851921260105756e-18 8.737269252286123e-08  0.
-7.93519910975899e-17 8.737269248929248e-08  0.
-9.287247604072143e-16 8.737269206670773e-08  0.
-9.251729847152297e-15 8.737268751391037e-08  0.
-7.736163480504297e-14 8.737264610465705e-08  0.
-5.353076379752979e-13 8.737233277992464e-08  0.
-3.0268454197590603e-12 8.737038731049664e-08  0.
-1.3893726767296196e-11 8.736057971638879e-08  0.
-5.2063446891759725e-11 8.732039139623277e-08  0.
-1.622962225976444e-10 8.718470023367056e-08  0.
-4.2972883363795815e-10 8.679871170902276e-08  0.
-9.83099781125772e-10 8.585693892333606e-08  0.
-1.973809292652302e-09 8.385256533256568e-08  0.
-3.519851951527156e-09 8.00825438467777e-08  0.
-5.639979559221488e-09 7.374917458843017e-08  0.
-8.26821834026133e-09 6.424508827093754e-08  0.
-1.2330785093676379e-08 5.267297000191088e-08  0.
-3.2164688810094684e-08 5.724861105153488e-08  0.
0.0 3.812101870230106e-07  0.
-4.207009448132117e-20 3.812101870230071e-07  0.
-7.502452691572001e-19 3.8121018702275205e-07  0.
-1.2007739885534613e-17 3.8121018701853965e-07  0.
-1.7082016509524633e-16 3.8121018695441676e-07  0.
-2.108702005398997e-15 3.812101861046598e-07  0.
-2.231694350447143e-14 3.8121017640248116e-07  0.
-1.9989031606169747e-13 3.8121008212684847e-07  0.
-1.4943772256517874e-12 3.8120931314650595e-07  0.
-9.19832885947501e-12 3.812041235272565e-07  0.
-4.612181337686284e-11 3.8117550774066317e-07  0.
-1.8790345891168527e-10 3.810475258655863e-07  0.
-6.287297235386623e-10 3.8058058220495305e-07  0.
-1.764698343017965e-09 3.79164092247728e-07  0.
-4.2274370792242934e-09 3.755238465654623e-07  0.
-8.792695710317773e-09 3.674594188338684e-07  0.
-1.609478507735521e-08 3.5183119014230304e-07  0.
-2.6287250125630546e-08 3.2503336811733797e-07  0.
-3.921724830864538e-08 2.8448070721949995e-07  0.
-6.007548583514896e-08 2.366606440089461e-07  0.
-1.4899288675784885e-07 2.6247369797017704e-07  0.
0.0 1.2900771486905905e-06  0.
-7.239070659185455e-20 1.2900771486905729e-06  0.
-1.3510504743287382e-18 1.2900771486901843e-06  0.
-2.258632489401309e-17 1.2900771486831978e-06  0.
-3.3433856555744874e-16 1.2900771485728688e-06  0.
-4.315596409945371e-15 1.290077147047321e-06  0.
-4.8036170404948276e-14 1.2900771287672568e-06  0.
-4.555311374920911e-13 1.2900769411338685e-06  0.
-3.631458975902144e-12 1.290075312878989e-06  0.
-2.3996930868105383e-11 1.290063536081911e-06  0.
-1.297501475596225e-10 1.2899935538322973e-06  0.
-5.693019055600712e-10 1.2896557367331452e-06  0.
-2.0315860510304094e-09 1.288335594302575e-06  0.
-5.9926490425473435e-09 1.2841127188003772e-06  0.
-1.4937896662216328e-08 1.2727929178761732e-06  0.
-3.194493064420062e-08 1.2469506202972695e-06  0.
-5.964216468257018e-08 1.195843797000528e-06  0.
-9.861859987244942e-08 1.1073632630375018e-06  0.
-1.491719736994218e-07 9.744678071607634e-07  0.
-2.3447521055014727e-07 8.29039385836421e-07  0.
-5.420356243774339e-07 9.449979732481157e-07  0.
0.0 3.280379666050596e-06  0.
-1.116183834102006e-19 3.280379666050566e-06  0.
-2.2542225923927795e-18 3.2803796660499967e-06  0.
-3.9040690035466337e-17 3.2803796660395286e-06  0.
-5.974635075446679e-16 3.2803796658689675e-06  0.
-8.003604131364512e-15 3.28037966342502e-06  0.
-9.289320190937884e-14 3.280379632939687e-06  0.
-9.234708622816346e-13 3.280379305511918e-06  0.
-7.76241477977155e-12 3.2803763152120277e-06  0.
-5.4398305387900156e-11 3.280353417635853e-06  0.
-3.132945387241519e-10 3.2802086132226597e-06  0.
-1.4649556244641757e-09 3.2794632092830165e-06  0.
-5.5328944873228385e-09 3.276370947463091e-06  0.
-1.701670838389491e-08 3.2660206476101604e-06  0.
-4.3552758895013025e-08 3.2375808790120087e-06  0.
-9.475917000782354e-08 3.1717585250562354e-06  0.
-1.7804671560382213e-07 3.0415290510228183e-06  0.
-2.9506507947567687e-07 2.8187180628733573e-06  0.
-4.4882262806909806e-07 2.498023291656315e-06  0.
-7.199144285362334e-07 2.2053949258078723e-06  0.
-1.506764412920768e-06 2.60682864167033e-06  0.
0.0 6.13716586451004e-06  0.
-1.781660632202227e-19 6.137165864509987e-06  0.
-3.496205388657283e-18 6.137165864509232e-06  0.
-6.216546493275751e-17 6.137165864495153e-06  0.
-9.778254705243564e-16 6.1371658642590906e-06  0.
-1.3506034767193824e-14 6.137165860775165e-06  0.
-1.622364540575371e-13 6.1371658158495855e-06  0.
-1.6763189252845068e-12 6.137165314986696e-06  0.
-1.4713910662553698e-11 6.137160545007409e-06  0.
-1.0818590659563822e-10 6.137122273925007e-06  0.
-6.563173284691601e-10 6.136867549953112e-06  0.
-3.2367672487810668e-09 6.135484182329321e-06  0.
-1.2834386075669197e-08 6.129446021105422e-06  0.
-4.088317289689282e-08 6.108442443333309e-06  0.
-1.0627547799866235e-07 6.049813551638794e-06  0.
-2.3154584017149715e-07 5.915225839546955e-06  0.
-4.3121457663409933e-07 5.65557678756116e-06  0.
-7.049900825035255e-07 5.232957992135256e-06  0.
-1.0680562183219267e-06 4.691475223175417e-06  0.
-1.7187749001288373e-06 4.409896301375029e-06  0.
-3.1368009693003856e-06 5.434354437821443e-06  0.
0.0 8.727910268069896e-06  0.
-2.525627531480461e-19 8.727910268069857e-06  0.
-5.0505111108641476e-18 8.72791026806896e-06  0.
-9.154678547812073e-17 8.727910268051852e-06  0.
-1.4724751577609456e-15 8.727910267759265e-06  0.
-2.085027083436448e-14 8.7279102633355e-06  0.
-2.575188497622567e-13 8.727910204736253e-06  0.
-2.7450505390950464e-12 8.727909531434335e-06  0.
-2.4949285638960533e-11 8.727902899236737e-06  0.
-1.9067693558208806e-10 8.727847645161575e-06  0.
-1.2064134904695435e-09 8.727464384339901e-06  0.
-6.214921192410053e-09 8.725289763069067e-06  0.
-2.5667961861745912e-08 8.715384954535161e-06  0.
-8.421700656381353e-08 8.679765106929555e-06  0.
-2.2084789765931466e-07 8.579274538678714e-06  0.
-4.751660771091891e-07 8.353628584770268e-06  0.
-8.656351166949166e-07 7.938916787794216e-06  0.
-1.374816360082857e-06 7.328603802962123e-06  0.
-2.0585507749069203e-06 6.732715407718935e-06  0.
-3.2193059933736752e-06 6.948846401254301e-06  0.
-4.959956966857982e-06 8.755369974628054e-06  0.
0.0 1.0821079676649856e-05  0.
-3.281546783496384e-19 1.082107967664982e-05  0.
-6.8001348197295256e-18 1.0821079676648865e-05  0.
-1.2525460858465988e-16 1.082107967663025e-05  0.
-2.0506446129878656e-15 1.082107967630633e-05  0.
-2.961533350887053e-14 1.0821079671315894e-05  0.
-3.7391237136334515e-13 1.0821079603802496e-05  0.
-4.085021307711842e-12 1.0821078809595574e-05  0.
-3.8162166353955984e-11 1.0821070777147805e-05  0.
-3.0068415552853645e-10 1.0821001860965031e-05  0.
-1.9667447811182443e-09 1.08205080473076e-05  0.
-1.0490968776885513e-08 1.081760716797178e-05  0.
-4.479404272613802e-08 1.080392766102603e-05  0.
-1.5067946666811676e-07 1.0753300370294249e-05  0.
-3.97420230958986e-07 1.060907220424527e-05  0.
-8.379727764443089e-07 1.029414333226824e-05  0.
-1.4773570729964597e-06 9.757871583454144e-06  0.
-2.282210200700675e-06 9.076358532506986e-06  0.
-3.3459678571615135e-06 8.745380528880341e-06  0.
-4.927481353375547e-06 9.769478687971112e-06  0.
-6.475165563402165e-06 1.1733716488212533e-05  0.
0.0 1.3299235018364735e-05  0.
-4.057780940704902e-19 1.329923501836469e-05  0.
-8.554199581969538e-18 1.3299235018363793e-05  0.
-1.5953770456060316e-16 1.3299235018346097e-05  0.
-2.647426140368391e-15 1.329923501803416e-05  0.
-3.881057537799502e-14 1.3299235013158413e-05  0.
-4.982517707801301e-13 1.3299234946126841e-05  0.
-5.5457558732381574e-12 1.3299234143284396e-05  0.
-5.2895852303099135e-11 1.3299225859179115e-05  0.
-4.264938333811214e-10 1.3299153174496993e-05  0.
-2.8609096628818418e-09 1.329861936125302e-05  0.
-1.5673025941318526e-08 1.329539861661931e-05  0.
-6.868360154838216e-08 1.3279791604637723e-05  0.
-2.3581052825760826e-07 1.3220635439025829e-05  0.
-6.253720734177996e-07 1.3050255174968592e-05  0.
-1.2920089274579924e-06 1.2687623319936841e-05  0.
-2.19223921359562e-06 1.2130450862113927e-05  0.
-3.3205032837362376e-06 1.1583972544197558e-05  0.
-4.743017904154667e-06 1.1715928605858626e-05  0.
-6.448966320083463e-06 1.302635438472962e-05  0.
-7.785133964095269e-06 1.4073191025754074e-05  0.
0.0 1.5712736073558938e-05  0.
-4.809463766445993e-19 1.5712736073558907e-05  0.
-1.0073187239944407e-17 1.5712736073558196e-05  0.
-1.8940114254386044e-16 1.571273607354428e-05  0.
-3.1728306060230345e-15 1.5712736073296378e-05  0.
-4.700380557019466e-14 1.5712736069381622e-05  0.
-6.105280051659502e-13 1.571273601494802e-05  0.
-6.884525218500078e-12 1.5712735354715896e-05  0.
-6.662534701421182e-11 1.5712728445225433e-05  0.
-5.459192196059117e-10 1.57126668632269e-05  0.
-3.7272647852858185e-09 1.571220662685694e-05  0.
-2.0806650047819195e-08 1.570937681974093e-05  0.
-9.289791719222333e-08 1.5695389717388844e-05  0.
-3.2389617782319774e-07 1.5641378578147318e-05  0.
-8.637112532418461e-07 1.548416157497248e-05  0.
-1.7581728643148119e-06 1.5155237971022136e-05  0.
-2.877286561374296e-06 1.4704643578052572e-05  0.
-4.246923696994316e-06 1.4449729836736041e-05  0.
-5.8947471240949735e-06 1.4868840367654244e-05  0.
-7.396346622178695e-06 1.5683425487775813e-05  0.
-8.770128661115872e-06 1.5873128369635575e-05  0.
0.0 1.8046169798361643e-05  0.
-5.366395363935907e-19 1.8046169798361623e-05  0.
-1.1110599615688074e-17 1.8046169798361247e-05  0.
-2.0984179760735958e-16 1.8046169798353515e-05  0.
-3.5352613277473926e-15 1.804616979821555e-05  0.
-5.270013474906257e-14 1.8046169796024002e-05  0.
-6.892738647638062e-13 1.8046169765350377e-05  0.
-7.832676986315825e-12 1.804616939056926e-05  0.
-7.6455402871595e-11 1.8046165436314682e-05  0.
-6.324695530141983e-10 1.80461298691092e-05  0.
-4.363655456766576e-09 1.8045861361172517e-05  0.
-2.4633502288452105e-08 1.8044191891206235e-05  0.
-1.1123136670406068e-07 1.80358422454607e-05  0.
-3.9160718753968726e-07 1.8003226600492602e-05  0.
-1.0489919501135948e-06 1.7907485855080685e-05  0.
-2.119024822348432e-06 1.7709152036312772e-05  0.
-3.3753375614346417e-06 1.7463901326511398e-05  0.
-4.802169615567327e-06 1.742670015150332e-05  0.
-6.501745856542625e-06 1.7746059573902935e-05  0.
-7.860914011954128e-06 1.799139108903449e-05  0.
-9.144878185134337e-06 1.8123448042819695e-05  0.
0.0 2.045e-05  0.
-5.538606633270298e-19 2.045e-05  0.
-1.1484785757778136e-17 2.045e-05  0.
-2.1713876774719328e-16 2.045e-05  0.
-3.6648388634855346e-15 2.045e-05  0.
-5.474483257557943e-14 2.045e-05  0.
-7.176597363359589e-13 2.045e-05  0.
-8.176087149680616e-12 2.045e-05  0.
-8.003455528752602e-11 2.045e-05  0.
-6.641704291338795e-10 2.045e-05  0.
-4.598275537268441e-09 2.045e-05  0.
-2.605466082313688e-08 2.045e-05  0.
-1.1809280806805467e-07 2.045e-05  0.
-4.171524126099134e-07 2.045e-05  0.
-1.1194402797479959e-06 2.045e-05  0.
-2.2564371002401034e-06 2.045e-05  0.
-3.557098474682189e-06 2.045e-05  0.
-4.962082278989558e-06 2.045e-05  0.
-6.651937668522298e-06 2.045e-05  0.
-8.041675344874992e-06 2.045e-05  0.
-9.188393023762414e-06 2.045e-05  0.
</DataArray>
<DataArray type="Float64" Name="sigma_xx" NumberOfComponents="1" format="ascii" >
0.00025428548156014575 
0.00025428548156014575 
0.00025428548156014575 
0.00025428548156014575 
0.00025428548156014575 
0.00025428548156014575 
0.00025428548156014575 
0.00025428548156014575 
0.0002541411525669445 
0.00025398572134349695 
0.0002532196674565056 
0.0002513877994658741 
0.0002484679129111099 
0.00024323876246512544 
0.00023551161021373435 
0.00022376545061320022 
0.00020629054020560028 
0.00018330892359585954 
0.0001542543870414192 
0.00010752509993494636 
7.69384556065233e-05 
0.0025821789151336807 
0.0025821789151336807 
0.0025821789151336807 
0.0025821789151336807 
0.002582101199521957 
0.0025819457682985094 
0.002581795888190185 
0.002581268532253488 
0.002579986224660046 
0.0025770996447960206 
0.0025702995287701915 
0.002556144185206221 
0.002529892961788959 
0.002483635519467952 
0.0024081625582539337 
0.002291938860921049 
0.002122990672148716 
0.0018925916389633804 
0.001592542764328186 
0.0011244394304554812 
0.0008247624805335359 
0.042589864968078914 
0.04258994268369064 
0.04258994268369064 
0.042589864968078914 
0.04258971508797059 
0.04258911001642217 
0.04258723373951055 
0.042581432824206886 
0.04256519026135662 
0.042524228582863074 
0.04242963758116501 
0.04222938110309825 
0.041840220177391516 
0.04113823171003615 
0.03995918596011448 
0.038109276845332815 
0.03538725423801735 
0.03161997885747779 
0.026650454065801903 
0.018820056624235797 
0.01379547587276874 
0.6191506418673496 
0.6191507195829613 
0.6191507195829613 
0.6191504919872413 
0.6191497536889299 
0.6191457402326959 
0.6191291479495928 
0.6190724044508042 
0.6188990153699334 
0.6184299072842234 
0.6172927446979057 
0.6147887976482023 
0.6097417293293714 
0.6003686603417433 
0.5842382189147342 
0.5584009754588946 
0.5197338559526086 
0.4654718555041624 
0.39301339405106706 
0.27737719898723856 
0.20286570201477605 
7.885137875973666 
7.8851378759736654 
7.8851378759736654 
7.885137137675354 
7.885132341511888 
7.885105818283829 
7.884981906292051 
7.884502506438903 
7.882917330004343 
7.878332553001851 
7.8665736258365335 
7.839451177105158 
7.782648986376369 
7.673725821444318 
7.4812471717589055 
7.166091997579114 
6.685881132062475 
6.002022351347945 
5.076769954426295 
3.579608165438229 
2.610512284118015 
87.09606169610137 
87.09606161838576 
87.09606124090993 
87.09605830437003 
87.09603609990954 
87.09589066069331 
87.09511538085299 
87.09176126941995 
87.07957050435586 
87.04157589134451 
86.93782562185778 
86.68608312278889 
86.13620226527449 
85.0448637290668 
83.06072912800386 
79.73575027464538 
74.57254398990362 
67.10584195546151 
56.86062877763296 
40.032167894499246 
29.08662172784736 
824.65254491737 
824.6525448396544 
824.6525438071469 
824.6525336375041 
824.6524456079205 
824.6517904986204 
824.6478295281797 
824.6284259050271 
824.5504651172016 
824.2858881235545 
823.5128791611587 
821.5290680957385 
816.996600133679 
807.6623427250015 
790.1791901604447 
760.1621266506429 
712.6348229136157 
642.8101245903315 
545.5657959341218 
383.22965126846833 
277.0913030247789 
6600.606277462615 
6600.606277312735 
6600.606274692609 
6600.60624382841 
6600.605942130853 
6600.603461476281 
6600.586694610608 
6600.494432090762 
6600.08077958407 
6598.546926916968 
6593.718146752357 
6580.57382586785 
6549.0574024606985 
6481.630851828954 
6351.392527903508 
6122.292253490923 
5752.457388097375 
5200.608121738724 
4420.053312792492 
3094.294943045694 
2222.791459682848 
43919.178037299374 
43919.17803686083 
43919.17802980537 
43919.17794459576 
43919.17704307246 
43919.168972844636 
43919.108982659585 
43918.743126314366 
43916.92468736495 
43909.52229303967 
43884.39326769021 
43811.59348701978 
43628.369787976335 
43220.914247793495 
42410.1918793801 
40950.6723722086 
38552.636973115936 
34923.31302660522 
29709.481446804624 
20692.579371928136 
14731.62352538248 
237970.01518992547 
237970.01518898734 
237970.0151725727 
237970.01496138604 
237970.01257489502 
237969.98962304354 
237969.80472138844 
237968.57319143263 
237961.86181864736 
237932.02978291397 
237822.84296325056 
237486.92733291103 
236600.42864863388 
234557.6826903561 
230383.94237586687 
222726.83373115712 
209974.6176683125 
190472.0132451409 
162046.79560344876 
111994.53737482653 
78726.57596035278 
1022893.3187430231 
1022893.3187410745 
1022893.3187066189 
1022893.3182328589 
1022893.3125711156 
1022893.25472632 
1022892.7560370745 
1022889.1766966837 
1022868.0549991457 
1022766.4358348346 
1022367.4358635717 
1021070.5143296886 
1017501.9865960752 
1009037.4838963631 
991415.3832231705 
958750.1308857684 
904098.6107019224 
820300.81294627 
696804.8486522879 
475816.34500604135 
328256.8491468184 
3370127.1402184363 
3370127.140214534 
3370127.140146938 
3370127.1391766416 
3370127.12703844 
3370126.996532118 
3370125.8053585305 
3370116.6995054753 
3370059.1974902926 
3369762.792380711 
3368522.966975178 
3364290.3544539902 
3352270.39609587 
3323224.481282604 
3262458.163011765 
3150332.487488926 
2965029.8299910272 
2684484.488514673 
2269716.422057526 
1519879.2205140914 
1017942.3635779556 
8131079.102417646 
8131079.102410624 
8131079.102288317 
8131079.100468617 
8131079.07681441 
8131078.81135041 
8131076.269745355 
8131055.787338407 
8130918.847127353 
8130170.131325329 
8126860.197482443 
8115063.904264424 
8080788.828591523 
7997689.955160086 
7826016.741218639 
7518225.642242434 
7029230.931715166 
6318794.38189931 
5281942.701563295 
3417141.6899050856 
2173692.5172188045 
13605791.492477365 
13605791.492466152 
13605791.492261712 
13605791.489127012 
13605791.447048461 
13605790.95760965 
13605786.081566846 
13605745.024085324 
13605457.160578903 
13603803.38555653 
13596138.178655704 
13567786.667285945 
13484058.51427013 
13283181.78791257 
12881756.183010485 
12202546.378486004 
11205611.167437598 
9877609.385806486 
8023484.320786928 
4839848.755962643 
2762250.0648857383 
15294730.60070719 
15294730.600690361 
15294730.600373328 
15294730.595393756 
15294730.52674415 
15294729.704261445 
15294721.237098813 
15294647.318103632 
15294108.32607412 
15290881.8845408 
15275319.365463419 
15215897.357620554 
15038276.648294648 
14620669.63934542 
13830380.618470404 
12602570.133261468 
11016095.364172053 
9182395.941592993 
6857275.979239043 
3447370.079452441 
1391238.5759585893 
13146019.955253901 
13146019.955229938 
13146019.954772782 
13146019.947445981 
13146019.84421172 
13146018.577153262 
13146005.18017044 
13145884.733164635 
13144977.960921489 
13139364.030106656 
13111374.604286999 
13001571.83176653 
12670073.583625212 
11909683.497313345 
10572013.853274152 
8720880.735381177 
6697605.131233203 
4764983.655322006 
2612203.5023047277 
538537.9411491005 
-320677.37679009326 
12829172.614619628 
12829172.614587737 
12829172.613972513 
12829172.60395628 
12829172.460356276 
12829170.663700875 
12829151.2599083 
12828972.689458065 
12827593.785598801 
12818824.349022076 
12773919.246456126 
12593767.750954894 
12045200.871598251 
10817289.863557268 
8833972.30261858 
6481311.492580341 
4356807.812287134 
2700995.975227086 
937592.156560599 
-41562.01048447174 
19894.35178750608 
13730143.386815913 
13730143.386776274 
13730143.386002503 
13730143.373254912 
13730143.188062772 
13730140.836964868 
13730115.033046376 
13729873.32167609 
13727970.543521896 
13715619.262277601 
13651062.093304625 
13387477.13265163 
12579008.507522317 
10806678.146527592 
8183067.334211313 
5628827.384031478 
3754746.3965257592 
2353910.6152322767 
894386.7412356557 
-162054.88489017208 
-389912.6846772476 
13322973.104802545 
13322973.104756277 
13322973.103845678 
13322973.088717384 
13322972.866890544 
13322970.021691078 
13322938.440093165 
13322638.912168015 
13320248.910283513 
13304510.117067369 
13221043.662846021 
12875902.904374288 
11811226.010080768 
9512187.778376207 
6355102.239184935 
3915952.369253939 
2535607.3166624303 
982101.9930229324 
-144529.79169577963 
-793986.3800474893 
-1281690.8024250912 
13295764.26927149 
13295764.269220646 
13295764.268216949 
13295764.251458937 
13295764.004374702 
13295760.81588398 
13295725.185775876 
13295384.763699643 
13292646.590441763 
13274460.168614602 
13177173.205224197 
12771781.216777686 
11516577.206017379 
8829747.666150114 
5321040.822791255 
3129838.3811273947 
2286050.836685177 
328434.48434770026 
-630535.5136584167 
-69314.58465037833 