<?xml version="1.0"?>
<VTKFile type="UnstructuredGrid" version="0.1" byte_order="LittleEndian" compressor="vtkZLibDataCompressor">
<UnstructuredGrid>
<Piece NumberOfPoints="441" NumberOfCells="400">
<PointData>
<DataArray type="Float64" Name="displacement" NumberOfComponents="3" format="ascii" >
0.0 1.0710656989219897e-64  0.
2.2545868933798868e-64 1.1835660908658629e-64  0.
2.9678753627946492e-64 -4.700016369811753e-65  0.
-5.5539264942894815e-64 -8.0501683520424e-64  0.
-6.790063912614081e-63 -5.428927579852622e-63  0.
-3.8673026358012157e-62 -2.6451405151971333e-62  0.
-1.7035822526817716e-61 -1.0522647605209307e-61  0.
-6.1309857965822126e-61 -3.3749640567708294e-61  0.
-1.8763196303262992e-60 -9.256914958116023e-61  0.
-4.945038196783614e-60 -2.1429731298408697e-60  0.
-1.14333162022698e-59 -4.345238747408165e-60  0.
-2.3360257923678933e-59 -7.581643758425117e-60  0.
-4.256414408996843e-59 -1.1622231654787038e-59  0.
-6.936953141588842e-59 -1.5183259495625088e-59  0.
-1.0136164109762624e-58 -1.6808896359318809e-59  0.
-1.3244079386324563e-58 -1.4271751142800289e-59  0.
-1.5367469867261158e-58 -6.952806026915433e-60  0.
-1.5559373792250955e-58 4.9532055902458334e-60  0.
-1.3254653974291322e-58 1.8776665760438346e-59  0.
-8.039325201055365e-59 2.7477728168044947e-59  0.
-4.624273281119555e-59 5.820435122753823e-59  0.
0.0 4.6648939381071375e-61  0.
7.359235032939384e-61 2.696585215836508e-61  0.
1.2227699249618743e-60 2.1726196673182162e-61  0.
9.133268099902603e-61 -5.275605778268588e-61  0.
-3.6341420982145124e-60 -4.026139571457289e-60  0.
-3.2479027410525533e-59 -2.485062955898418e-59  0.
-1.7546335224297713e-58 -1.1826537574307488e-58  0.
-7.484848805569505e-58 -4.551988823483842e-58  0.
-2.6126583255937186e-57 -1.4102377863920966e-57  0.
-7.716554990283548e-57 -3.6967274738500317e-57  0.
-1.9535220543049018e-56 -8.128426578847624e-57  0.
-4.314030124660405e-56 -1.548858132269771e-56  0.
-8.370678171708159e-56 -2.5097094927843864e-56  0.
-1.438711080465921e-55 -3.5094101982625967e-56  0.
-2.1944411160998946e-55 -4.051044353063361e-56  0.
-2.9700154388510402e-55 -3.7081297482461694e-56  0.
-3.542704902713202e-55 -2.018396108142513e-56  0.
-3.662869594195432e-55 7.963548339802625e-57  0.
-3.1677494634684963e-55 4.326131021862261e-56  0.
-1.9361392446280836e-55 6.555420265383806e-56  0.
-1.1177766719680473e-55 1.410279187542577e-55  0.
0.0 1.593270964140435e-57  0.
3.771745847613706e-57 2.1799294627347328e-57  0.
6.576154231138895e-57 6.2549754093396996e-58  0.
7.147239289580849e-57 -5.508673490017234e-59  0.
1.566954997726366e-57 -5.534251434937117e-57  0.
-3.840348946099589e-56 -3.4493946527664434e-56  0.
-2.7549324160995825e-55 -2.0288188856388035e-55  0.
-1.4189703405982176e-54 -9.4174170409057e-55  0.
-5.828534847184403e-54 -3.471552443292175e-54  0.
-1.9603524545322733e-53 -1.0313647751239412e-53  0.
-5.547042152592659e-53 -2.5576894791444845e-53  0.
-1.3394579840966e-52 -5.294570223441979e-53  0.
-2.8037489578290008e-52 -9.356451274907336e-53  0.
-5.1231676015376996e-52 -1.3849805948323702e-52  0.
-8.222937870529784e-52 -1.7162771497388063e-52  0.
-1.1589954256345009e-51 -1.6524519819663926e-52  0.
-1.4278048937105846e-51 -1.0356289172393597e-52  0.
-1.512569005718253e-51 1.7870029035910488e-53  0.
-1.3306211747065057e-51 1.7156587028281377e-52  0.
-8.211185229406476e-52 2.76111345184601e-52  0.
-4.747023251131254e-52 6.0088006931740336e-52  0.
0.0 1.0998389375740107e-53  0.
1.7007815859207976e-53 6.016696084072601e-54  0.
2.881701402665734e-53 5.798806398403545e-54  0.
3.333782626609895e-53 -1.2776687617898221e-54  0.
2.588948034760333e-53 -6.181174707001739e-54  0.
-2.342772357592698e-53 -4.321644867704795e-53  0.
-3.2707764227604676e-52 -2.6090772715791125e-52  0.
-2.0619169930393875e-51 -1.4762198414601796e-51  0.
-1.0190600031082835e-50 -6.661285746560635e-51  0.
-4.0091043788701464e-50 -2.3266719142730896e-50  0.
-1.2936243507921814e-49 -6.607643023919063e-50  0.
-3.490020624114345e-49 -1.5372018756114108e-49  0.
-8.000462481762612e-49 -2.9761682366988645e-49  0.
-1.57774911008309e-48 -4.805516979493922e-49  0.
-2.693404325830853e-48 -6.357110068432017e-49  0.
-3.991840036179538e-48 -6.634776350033672e-49  0.
-5.1141151840420684e-48 -4.588219407138373e-49  0.
-5.580517936241108e-48 -1.1467662278416472e-50  0.
-5.0137487763291564e-48 6.079324489224518e-49  0.
-3.1274047983778326e-48 1.038360613146595e-48  0.
-1.8154844554813308e-48 2.3056976304845447e-48  0.
0.0 3.514111371670241e-50  0.
6.917792885426852e-50 3.406656001419927e-50  0.
1.1607770572090513e-49 1.2867402629834105e-50  0.
1.2870011066697799e-49 -2.4783321893601083e-52  0.
1.1210498446072376e-49 -1.6353066607173395e-50  0.
4.921211138639156e-50 -4.664370861759558e-50  0.
-2.92715130149335e-49 -2.9588908446215717e-49  0.
-2.3632536276582187e-48 -1.7781222123990486e-48  0.
-1.3676485603719415e-47 -9.551374672280319e-48  0.
-6.514460189580742e-47 -4.197658172759685e-47  0.
-2.4481856152653566e-46 -1.378759273792138e-46  0.
-7.576118394777777e-46 -3.75356956100624e-46  0.
-1.94709110002247e-45 -8.1502423209488e-46  0.
-4.2278574191328113e-45 -1.467303782684653e-45  0.
-7.816172972594205e-45 -2.1231856588394795e-45  0.
-1.235015449659799e-44 -2.413788428469179e-45  0.
-1.6642525874202928e-44 -1.8784931768140876e-45  0.
-1.8855960612671731e-44 -3.5074232643405e-46  0.
-1.739785063479724e-44 1.919130045524838e-45  0.
-1.1006172774953255e-44 3.605634198631611e-45  0.
-6.411829793271512e-45 8.181213904890763e-45  0.
0.0 1.3618968679390562e-46  0.
2.7564263632080266e-46 1.395174906010707e-46  0.
4.520842832019463e-46 3.719465557550888e-47  0.
4.764938039531493e-46 -1.2946165440000068e-47  0.
3.8933641461226174e-46 -7.411500113411551e-47  0.
2.476656855584437e-46 -6.774518693749193e-47  0.
-6.285507489761423e-47 -2.4343785342020086e-46  0.
-2.2421565679874963e-45 -1.9400127753765973e-45  0.
-1.5273354118930164e-44 -1.111383335415793e-44  0.
-8.182088734059977e-44 -5.553665540825271e-44  0.
-3.746740589694789e-43 -2.3767595350142653e-43  0.
-1.3427708730748832e-42 -7.314481152497545e-43  0.
-3.986921154950113e-42 -1.9150801889754545e-42  0.
-9.785460221236282e-42 -3.8880284595777625e-42  0.
-2.0087577472008076e-41 -6.421070603207211e-42  0.
-3.4614497870176635e-41 -8.116778437334117e-42  0.
-4.991217891867554e-41 -7.178088226757875e-42  0.
-5.9501994056676e-41 -2.4792110643704934e-42  0.
-5.68784271691562e-41 5.5060750102291083e-42  0.
-3.6629967433848706e-41 1.1760422963363162e-41  0.
-2.1474604209351634e-41 2.753925402827383e-41  0.
0.0 6.869308712192435e-43  0.
1.2191523381550672e-42 5.311659720043919e-43  0.
1.904555400436679e-42 1.5826297729705903e-43  0.
1.8760035070472586e-42 -1.9028658115724447e-43  0.
1.3601066827013072e-42 -3.23688183417516e-43  0.
7.425647315303894e-43 -2.9495503711125188e-43  0.
2.9236070459096976e-43 -1.5566735668463826e-43  0.
-1.0087657991571165e-42 -1.1498513183018678e-42  0.
-1.4812468856646908e-41 -1.2680059262176363e-41  0.
-9.23550624927666e-41 -6.499487669038784e-41  0.
-4.538396061367555e-40 -2.970800195479292e-40  0.
-1.9613053825853865e-39 -1.2123122730924651e-39  0.
-6.646324951367776e-39 -3.478026918723297e-39  0.
-1.89008570545701e-38 -8.787927102766535e-39  0.
-4.485576406791934e-38 -1.7187236939106628e-38  0.
-8.718178461921214e-38 -2.5177596267466937e-38  0.
-1.3977621516482206e-37 -2.738418189904103e-38  0.
-1.7989743050427208e-37 -1.307123023283889e-38  0.
-1.8177102199575234e-37 1.2828217773920778e-38  0.
-1.2012458246175508e-37 3.835312855114393e-38  0.
-6.991097461284543e-38 9.098600363512639e-38  0.
0.0 5.8221672045926335e-39  0.
6.306780589533758e-39 4.525923826731748e-40  0.
8.616963950659464e-39 1.9334272774894688e-39  0.
8.138120963585885e-39 -2.475597520406348e-39  0.
4.4985747100255237e-39 -1.1343102601579323e-39  0.
2.0468037624544088e-39 -1.3272340614065665e-39  0.
3.863388309869778e-40 -3.329512448708543e-40  0.
1.5394886860164933e-41 -4.0648174101390357e-41  0.
-5.498310281240327e-39 -5.500665658230634e-39  0.
-9.118401022801907e-38 -8.033240257131935e-38  0.
-5.225130106071663e-37 -3.5175505323223672e-37  0.
-2.3221033195723435e-36 -1.4507221710336739e-36  0.
-9.439360092087957e-36 -5.676845089304222e-36  0.
-2.976141256611238e-35 -1.466580693414794e-35  0.
-8.150319590746337e-35 -3.71360632779408e-35  0.
-1.9447144174166953e-34 -7.597867403300796e-35  0.
-3.6178932671840516e-34 -9.09505005949552e-35  0.
-5.3706144882969975e-34 -8.632527804661896e-35  0.
-6.000938407691229e-34 3.1451158595638645e-35  0.
-4.09016769364242e-34 1.1775264595443528e-34  0.
-2.442640668460101e-34 3.2683537471278905e-34  0.
0.0 -3.932124018873788e-36  0.
2.6568763879288694e-35 2.998065335308949e-35  0.
3.8956460321226784e-35 -1.651735102366834e-35  0.
2.442265068770278e-35 1.2081325328061518e-36  0.
1.4055858346859613e-35 -1.1303373138089132e-35  0.
1.4601770223923348e-36 -1.3406402064125771e-36  0.
6.012634735628237e-38 -6.181228101781072e-38  0.
-5.5879582188523575e-40 3.7554166714672504e-40  0.
-5.340096197962179e-38 -6.427192048008338e-38  0.
-2.496258497445453e-35 -2.5019977413030257e-35  0.
-4.891000989594735e-34 -4.4025961188009146e-34  0.
-2.5620863769847424e-33 -1.635836070751514e-33  0.
-1.0155673539270179e-32 -5.9732316501872336e-33  0.
-4.3702423278000254e-32 -2.7540242093152593e-32  0.
-1.2679391443206087e-31 -5.582757952142786e-32  0.
-3.3432034693709317e-31 -1.5199924406887881e-31  0.
-8.243570176666872e-31 -3.3478494713453766e-31  0.
-1.4273457699355967e-30 -2.830974164997511e-31  0.
-1.906166462065483e-30 -1.5712844083610762e-31  0.
-1.4502859085551785e-30 4.211360779637722e-31  0.
-8.305417415829647e-31 1.1946324076989287e-30  0.
0.0 1.5662697079066713e-31  0.
1.0642936292611672e-31 -5.532064809671608e-32  0.
8.323929559240366e-32 4.150599176029375e-32  0.
6.937527403502313e-32 -6.064714474644379e-32  0.
3.911103734984804e-33 -3.752035357315965e-33  0.
9.611676640203696e-35 -1.0030831623699697e-34  0.
-7.714779154536333e-37 6.680609311633799e-37  0.
9.375409580577068e-39 -9.113689342568902e-39  0.
-2.471332939002027e-37 -3.641325917561801e-37  0.
-2.2662769071062157e-34 -2.7599828096186935e-34  0.
-1.087703280771124e-31 -1.0896453912911957e-31  0.
-2.0339641901424682e-30 -1.8144147170417873e-30  0.
-9.731174266482401e-30 -5.890579720360241e-30  0.
-3.61784569334113e-29 -2.0678394314807902e-29  0.
-2.010918819837275e-28 -1.48149055528218e-28  0.
-5.428294362980877e-28 -1.9396441357561006e-28  0.
-1.2530907588025146e-27 -5.04446799570325e-28  0.
-2.8722193589281386e-27 -1.2000616747083016e-27  0.
-4.640191992358247e-27 -3.794395459526253e-28  0.
-4.1464424735344804e-27 3.4827639715413588e-28  0.
-3.38466435748583e-27 4.212555443670213e-27  0.
0.0 -7.22909163898117e-29  0.
1.900878384917656e-28 2.320875709960506e-28  0.
1.8713751991359793e-28 -1.8917665380818464e-28  0.
6.838759699055307e-30 -6.65461408047813e-30  0.
1.0209955373952945e-31 -1.115238819763961e-31  0.
-8.658022072803274e-34 6.885493139393075e-34  0.
1.1036429804208718e-35 -9.548217042478878e-36  0.
2.1326298718483226e-38 -3.173024372141555e-38  0.
-1.434253416483272e-36 -2.0530703008757298e-36  0.
-1.0672474199374001e-33 -1.5664076264470093e-33  0.
-8.79283520037986e-31 -1.0963025495135447e-30  0.
-4.323391854578987e-28 -4.413935264388645e-28  0.
-5.889144234566423e-27 -5.117137394949503e-27  0.
-2.6043405817954664e-26 -1.544258860977778e-26  0.
-1.4055057765617889e-25 -9.376474367737544e-26  0.
-9.063031875906278e-25 -5.500628325066217e-25  0.
-1.976627832016939e-24 -3.052364471136023e-25  0.
-3.02591643051805e-24 -7.694351044919684e-25  0.
-6.771208846319516e-24 -2.088048560078283e-24  0.
-8.005191578552139e-24 1.217529097163437e-25  0.
-8.27498967468221e-24 7.41159399110734e-24  0.
0.0 3.803542606150576e-20  0.
3.7766529498808876e-25 3.8034696144132555e-20  0.
6.400484013137492e-27 3.803492760145189e-20  0.
6.505542593836663e-29 3.803493459942801e-20  0.
-6.6500722452928905e-31 3.8034934679396385e-20  0.
9.284057323752674e-33 3.803493467891545e-20  0.
1.3360707589674815e-35 3.803493467892308e-20  0.
1.748595781926899e-36 3.803493467892312e-20  0.
-5.64725004925544e-36 3.8034934678923105e-20  0.
-6.158731509925202e-33 3.803493467891433e-20  0.
-4.457349196908085e-30 3.803493467249992e-20  0.
-2.999057608567803e-27 3.803493087885801e-20  0.
-1.3573677286828119e-24 3.8033666090736914e-20  0.
-1.2117016123826085e-23 3.8026445408299755e-20  0.
-5.0058016298315075e-23 3.801058928144408e-20  0.
-3.805713710219442e-22 3.7609399427432066e-20  0.
-1.0456124613077369e-21 3.5606844319522686e-20  0.
-1.554943825009809e-21 3.314506156646574e-20  0.
-2.2833563705667065e-21 3.0018354933929375e-20  0.
-3.86605122443167e-21 2.2773649316848772e-20  0.
-1.1968707487693326e-20 2.370282289752401e-20  0.
0.0 5.6891206173728715e-18  0.
3.1155968396274082e-24 5.689615703345558e-18  0.
1.9178136357598595e-26 5.689618678953852e-18  0.
-3.286164585097842e-28 5.689618710994248e-18  0.
5.440290352806153e-30 5.68961871080725e-18  0.
9.064777420937827e-33 5.6896187108115525e-18  0.
2.2188641346487653e-33 5.689618710811574e-18  0.
1.1448064385304771e-33 5.689618710811576e-18  0.
9.708828075960455e-34 5.689618710811574e-18  0.
-2.1125139456859004e-32 5.689618710811539e-18  0.
-2.1018054011327601e-29 5.689618710779679e-18  0.
-1.4502270804463197e-26 5.689618689742073e-18  0.
-7.20294574819226e-24 5.6896079414203225e-18  0.
-2.3426504649261502e-21 5.686873435857047e-18  0.
-1.1621525703654027e-20 5.673148855417113e-18  0.
-4.076888719781436e-20 5.622261277553003e-18  0.
-9.786804316539305e-20 5.486729824766277e-18  0.
-2.06361274963359e-19 5.187715061327442e-18  0.
-3.4854315240022535e-19 4.640321830408295e-18  0.
-5.424752441101837e-19 3.812033727810342e-18  0.
-2.006892741895444e-18 3.921676665779345e-18  0.
0.0 6.596398870484055e-16  0.
-2.0757888945558034e-24 6.596398646749448e-16  0.
-7.754635259520934e-26 6.596398721960065e-16  0.
2.1320403282980984e-27 6.596398721559561e-16  0.
3.9967713411572634e-30 6.596398721574449e-16  0.
9.574259229875025e-31 6.596398721574554e-16  0.
4.0801154908856304e-32 6.596398721574563e-16  0.
4.635536307367255e-32 6.596398721574565e-16  0.
3.3400657269330673e-32 6.596398721574563e-16  0.
-8.859568707131794e-33 6.596398721574563e-16  0.
-6.905520566061466e-29 6.596398721573345e-16  0.
-6.364403331948615e-26 6.596398720597469e-16  0.
-3.7870734377315685e-23 6.596398091923369e-16  0.
-1.7899887451968538e-20 6.596263479985912e-16  0.
-7.550379948241154e-19 6.588831066151631e-16  0.
-2.982110472100133e-18 6.552481304345491e-16  0.
-9.601339814938464e-18 6.429411165955196e-16  0.
-2.1077027587536534e-17 6.128663374524239e-16  0.
-3.9665431598080593e-17 5.533480757179909e-16  0.
-6.357265321507592e-17 4.580479418367465e-16  0.
-2.4232514480441177e-16 4.736222930984232e-16  0.
0.0 5.902412096274751e-14  0.
-6.845939452682548e-24 5.902411996959006e-14  0.
4.105370703041482e-25 5.90241199638919e-14  0.
6.560684820812325e-28 5.902411996426812e-14  0.
5.059099183927684e-28 5.902411996427137e-14  0.
1.1741390663770995e-29 5.902411996427188e-14  0.
1.0988483079952234e-29 5.902411996427188e-14  0.
1.1423294232791539e-29 5.90241199642719e-14  0.
9.728445978141136e-30 5.902411996427188e-14  0.
9.347668725796361e-30 5.90241199642719e-14  0.
-2.4710656044595535e-28 5.902411996427143e-14  0.
-2.0799251559924714e-25 5.902411996388701e-14  0.
-3.0581370385919745e-22 5.902411965735227e-14  0.
-7.677267642006667e-20 5.902407404483143e-14  0.
-5.113435486534813e-18 5.902040282688005e-14  0.
-1.700599595451332e-16 5.885259793995262e-14  0.
-5.882007683994947e-16 5.811923293933973e-14  0.
-1.7086333802674234e-15 5.58833837356456e-14  0.
-3.3194218577239815e-15 5.0987682476345397e-14  0.
-5.860796528779608e-15 4.261188837308084e-14  0.
-2.252466389276692e-14 4.4265051728936707e-14  0.
0.0 3.934777584365183e-12  0.
5.585190600150868e-23 3.934777586761e-12  0.
-2.5975962852499732e-25 3.934777586784124e-12  0.
1.564605242296637e-25 3.9347775867838306e-12  0.
-1.2007704681124893e-27 3.93477758678399e-12  0.
8.431236569238871e-30 3.93477758678399e-12  0.
6.512678416403391e-29 3.93477758678399e-12  0.
8.731891593684127e-29 3.93477758678399e-12  0.
-1.3486478648788383e-28 3.93477758678399e-12  0.
3.0414618263961073e-28 3.93477758678399e-12  0.
-1.0998023291178354e-28 3.934777586783989e-12  0.
-7.785799341225442e-25 3.9347775867825954e-12  0.
-1.1006935749139896e-21 3.9347775860968765e-12  0.
-2.3028012763982245e-19 3.934777478000391e-12  0.
-1.94276816309069e-17 3.934766677796503e-12  0.
-1.0648231375456648e-15 3.934025412347697e-12  0.
-2.8568232308935476e-14 3.905884188385592e-12  0.
-8.47742648664999e-14 3.79709035168336e-12  0.
-2.1812227890348004e-13 3.5050284821167267e-12  0.
-3.871075668504264e-13 2.9619018278070806e-12  0.
-1.5855383613241836e-12 3.104212799282564e-12  0.
0.0 1.860950006791513e-10  0.
-2.327130086792319e-22 1.8609500067790715e-10  0.
1.989706476655616e-23 1.8609500067779455e-10  0.
-1.0903540237320843e-24 1.860950006778197e-10  0.
1.8571875106125882e-26 1.8609500067781875e-10  0.
1.3200254636981308e-26 1.8609500067781875e-10  0.
1.5616293192477993e-26 1.860950006778188e-10  0.
1.7002544551310153e-26 1.8609500067781885e-10  0.
6.420650248005901e-27 1.8609500067781875e-10  0.
2.923579532821153e-26 1.8609500067781882e-10  0.
5.503921935087493e-27 1.860950006778188e-10  0.
3.6211475918839643e-25 1.860950006778164e-10  0.
-3.149769270961342e-21 1.860950006761826e-10  0.
-5.234776794171959e-19 1.8609500048954344e-10  0.
-5.192458694362237e-17 1.860949784994767e-10  0.
-3.6627552494514045e-15 1.8609308937753494e-10  0.
-1.6402269207731684e-13 1.8598318478234012e-10  0.
-3.4055615900541625e-12 1.826364494008837e-10  0.
-8.460301499548407e-12 1.7141295583360846e-10  0.
-1.9750244724274822e-11 1.4673226067414435e-10  0.
-7.79186421318326e-11 1.5429455781865065e-10  0.
0.0 5.818063913095715e-09  0.
9.588395118044246e-22 5.8180639130986615e-09  0.
-3.3119579381111368e-22 5.818063913098994e-09  0.
2.6986649412865323e-24 5.818063913098791e-09  0.
1.957757921041548e-24 5.81806391309879e-09  0.
2.019150067295589e-24 5.81806391309879e-09  0.
1.8315948992372398e-24 5.818063913098787e-09  0.
1.9678999217116254e-24 5.8180639130987905e-09  0.
1.7194389859603785e-24 5.818063913098787e-09  0.
1.9618330999030444e-24 5.8180639130987905e-09  0.
2.0581110545827083e-24 5.81806391309879e-09  0.
1.4866804136090996e-24 5.818063913098786e-09  0.
-5.4312785944520565e-21 5.81806391309778e-09  0.
-9.590067910002789e-19 5.8180639128468685e-09  0.
-1.0603096418145263e-16 5.81806388030215e-09  0.
-8.746861082283166e-15 5.818060631601692e-09  0.
-5.022421409610655e-13 5.817827346406084e-09  0.
-1.7764407980029004e-11 5.806494193213864e-09  0.
-2.690687098037744e-10 5.544278969289488e-09  0.
-5.751931834606853e-10 4.835807766431471e-09  0.
-2.670927523996812e-09 5.13904549535824e-09  0.
0.0 1.078583412957934e-07  0.
1.3464164738779033e-21 1.078583412957884e-07  0.
-3.3657428501584105e-22 1.078583412957881e-07  0.
3.2965227186643094e-25 1.0785834129578832e-07  0.
-1.5236050049989539e-24 1.0785834129578828e-07  0.
-5.278789776912189e-24 1.0785834129578832e-07  0.
-4.480530092601453e-24 1.0785834129578832e-07  0.
-5.3438474467144364e-24 1.0785834129578833e-07  0.
-6.3442621837600995e-24 1.0785834129578829e-07  0.
4.1669305727665e-24 1.0785834129578829e-07  0.
-5.378435791974267e-24 1.0785834129578829e-07  0.
2.863062261594116e-24 1.078583412957883e-07  0.
-8.893274501507444e-21 1.0785834129578666e-07  0.
-1.4602607039969532e-18 1.0785834129553359e-07  0.
-1.7295787542866176e-16 1.0785834126064346e-07  0.
-1.570866213292412e-14 1.0785833748341775e-07  0.
-1.045337700411303e-12 1.078580217882787e-07  0.
-4.735687535898168e-11 1.0783943194429957e-07  0.
-1.2661181247402094e-09 1.0709988404409472e-07  0.
-1.3334635289083393e-08 9.571903180960339e-08  0.
-4.993276547584634e-08 9.918815698293683e-08  0.
0.0 9.910307903221923e-07  0.
1.1234218037629508e-22 9.91030790322193e-07  0.
2.16984227038e-23 9.91030790322193e-07  0.
8.029013495141935e-23 9.910307903221931e-07  0.
-8.04740401300867e-23 9.910307903221933e-07  0.
1.4449692609575138e-24 9.91030790322193e-07  0.
-1.9830710369802037e-23 9.91030790322193e-07  0.
5.287870981421378e-24 9.910307903221931e-07  0.
-5.808298753260462e-23 9.91030790322193e-07  0.
5.623079966174084e-23 9.91030790322193e-07  0.
-6.162853607457383e-23 9.91030790322193e-07  0.
4.115893433732366e-23 9.91030790322193e-07  0.
-1.0792136260281654e-20 9.910307903221923e-07  0.
-1.8727042227304158e-18 9.91030790322031e-07  0.
-2.3047154493909835e-16 9.910307902989501e-07  0.
-2.2082852111878257e-14 9.910307876531563e-07  0.
-1.5940823836734568e-12 9.910305527956784e-07  0.
-8.255970551373497e-11 9.910144894975318e-07  0.
-2.8664918404086326e-09 9.90279772339942e-07  0.
-5.749304392572457e-08 9.694964316221257e-07  0.
-5.327327618398767e-07 9.755077193895233e-07  0.
0.0 3.4499999999999975e-06  0.
1.1258818340749941e-23 3.4499999999999975e-06  0.
-1.1822475771470558e-23 3.4499999999999975e-06  0.
6.080358998740902e-22 3.4499999999999975e-06  0.
-6.121773489625209e-22 3.4499999999999975e-06  0.
4.380286982803437e-24 3.4499999999999975e-06  0.
-7.890009840616767e-23 3.4499999999999975e-06  0.
6.636588570946514e-23 3.4499999999999975e-06  0.
-1.3975360551350078e-22 3.4499999999999975e-06  0.
9.031654975720391e-23 3.4499999999999975e-06  0.
-1.1476877338312624e-22 3.4499999999999975e-06  0.
1.339832819854456e-22 3.4499999999999975e-06  0.
-1.1743358330580517e-20 3.4499999999999975e-06  0.
-2.0338857431485493e-18 3.4499999999999975e-06  0.
-2.533036776063039e-16 3.4499999999999975e-06  0.
-2.4704366782666953e-14 3.4499999999999975e-06  0.
-1.8290417929344594e-12 3.4499999999999975e-06  0.
-9.921620549056916e-11 3.4499999999999975e-06  0.
-3.7179593344392777e-09 3.4499999999999975e-06  0.
-8.932165225742592e-08 3.4499999999999975e-06  0.
-9.703625540050385e-07 3.4499999999999975e-06  0.
</DataArray>
<DataArray type="Float64" Name="sigma_xx" NumberOfComponents="1" format="ascii" >
0.0 
0.0 
0.0 
0.0 
0.0 
0.0 
0.0 
0.0 
0.0 
0.0 
0.0 
0.0 
0.0 
0.0 
0.0 
0.0 
0.0 
0.0 
0.0 
0.0 
0.0 
0.0 
0.0 
0.0 
0.0 
0.0 
0.0 
0.0 
0.0 
0.0 
0.0 
0.0 
0.0 
0.0 
0.0 
0.0 
0.0 
0.0 
0.0 
0.0 
0.0 
0.0 
0.0 
0.0 
0.0 
0.0 
0.0 
0.0 
0.0 
0.0 
0.0 
0.0 
0.0 
0.0 
0.0 
0.0 
0.0 
0.0 
0.0 
0.0 
0.0 
0.0 
0.0 
0.0 
0.0 
0.0 
0.0 
0.0 
0.0 
0.0 
0.0 
0.0 
0.0 
0.0 
0.0 
0.0 
0.0 
0.0 
0.0 
0.0 
0.0 
0.0 
0.0 
0.0 
0.0 
0.0 
0.0 
0.0 
0.0 
0.0 
0.0 
0.0 
0.0 
0.0 
0.0 
0.0 
0.0 
0.0 
0.0 
0.0 
0.0 
0.0 
0.0 
0.0 
0.0 
0.0 
0.0 
0.0 
0.0 
0.0 
0.0 
0.0 
0.0 
0.0 
0.0 
0.0 
0.0 
0.0 
0.0 
0.0 
0.0 
0.0 
0.0 
0.0 
0.0 
0.0 
0.0 
0.0 
0.0 
0.0 
0.0 
0.0 
0.0 
0.0 
0.0 
0.0 
0.0 
0.0 
0.0 
0.0 
0.0 
0.0 
0.0 
0.0 
0.0 
0.0 
0.0 
0.0 
0.0 
0.0 
0.0 
0.0 
0.0 
0.0 
0.0 
0.0 
0.0 
0.0 
0.0 
0.0 
0.0 
0.0 
0.0 
0.0 
0.0 
0.0 
0.0 
0.0 
0.0 
0.0 
0.0 
0.0 
0.0 
0.0 
0.0 
0.0 
0.0 
0.0 
0.0 
0.0 
0.0 
0.0 
0.0 
0.0 
0.0 
0.0 
0.0 
0.0 
0.0 
0.0 
0.0 
0.0 
0.0 
0.0 
0.0 
0.0 
0.0 
0.0 
0.0 
0.0 
0.0 
0.0 
0.0 
0.0 
0.0 
0.0 
0.0 
0.0 
0.0 
0.0 
0.0 
0.0 
0.0 
0.0 
0.0 
0.0 
0.0 
0.0 
0.0 
0.0 
0.0 
0.0 
0.0 
0.0 
0.0 
0.0 
0.0 
0.0 
0.0 
0.0 
0.0 
1.5698553568199707e-05 
1.5698553568199707e-05 
1.5698553568199707e-05 
1.5698553568199707e-05 
1.5698553568199707e-05 
1.5698553568199707e-05 
1.5698553568199707e-05 
1.5698553568199707e-05 
1.5698553568199707e-05 
1.5698553568199707e-05 
1.5698553568199707e-05 
1.5698553568199707e-05 
1.5698553568199707e-05 
1.5698553568199707e-05 
1.554867345987531e-05 
1.539324223642779e-05 
1.4860335184607714e-05 
1.3938850074168835e-05 
1.2390088954816744e-05 
9.031664305325645e-06 
6.827871601444709e-06 
0.0018466783657800072 
0.0018466783657800072 
0.0018466783657800072 
0.0018466783657800072 
0.0018466783657800072 
0.0018466783657800072 
0.0018466783657800072 
0.0018466783657800072 
0.0018466783657800072 
0.0018466783657800072 
0.0018466783657800072 
0.0018466783657800072 
0.0018466783657800072 
0.0018452017691572558 
0.0018386681066573367 
0.0018167245485756205 
0.001763655887998538 
0.0016554591031336936 
0.0014680257010013516 
0.001092076429287658 
0.0008315459432139956 
0.16525152357615974 
0.16525152357615974 
0.16525152357615974 
0.16525152357615974 
0.16525152357615974 
0.16525152357615974 
0.16525152357615974 
0.16525152357615974 
0.16525152357615974 
0.16525152357615974 
0.16525152357615974 
0.16525152357615974 
0.16525145141166314 
0.16524029922138078 
0.16489756782256387 
0.16359448795633108 
0.15961936217223632 
0.1509678826394633 
0.13480772054208495 
0.10082627510676896 
0.07735720952695144 
11.015530021474259 
11.015530021474259 
11.015530021474259 
11.015530021474259 
11.015530021474259 
11.015530021474259 
11.015530021474259 
11.015530021474259 
11.015530021474259 
11.015530021474259 
11.015530021474259 
11.015530021474259 
11.01552958848728 
11.015483475373951 
11.013162815043383 
10.955621765340592 
10.76538501676438 
10.2483090624883 
9.23292564070088 
6.943933400505028 
5.288219306898153 
520.9008268725055 
520.9008268725055 
520.9008268725055 
520.9008268725055 
520.9008268725055 
520.9008268725055 
520.9008268725055 
520.9008268725055 
520.9008268725055 
520.9008268725055 
520.9008268725055 
520.9008268725055 
520.9008255735446 
520.9006894990596 
520.891833916126 
520.5325944279691 
513.6834327845727 
494.43225016432257 
448.3564304047503 
339.41807163206926 
263.80299296135934 
16279.650485673252 
16279.650485673254 
16279.650485673254 
16279.650485673254 
16279.650485673254 
16279.650485673254 
16279.650485673254 
16279.650485673254 
16279.650485673254 
16279.650485673254 
16279.650485673254 
16279.650485673254 
16279.650482708956 
16279.650172174028 
16279.626409243514 
16278.385342799456 
16239.319364774734 
15701.196486986308 
14434.49580560418 
10934.976136511837 
8201.882637953735 
301511.5326507888 
301511.5326507888 
301511.5326507888 
301511.5326507888 
301511.5326507888 
301511.5326507888 
301511.5326507888 
301511.5326507888 
301511.5326507888 
301511.5326507888 
301511.5326507888 
301511.5326507888 
301511.5326455152 
301511.5320735283 
301511.48338229395 
301508.50715290883 
301388.2931534372 
298615.39046772954 
273244.0959797687 
208401.07926217146 
166273.74024143486 
2760808.770165556 
2760808.770165556 
2760808.770165556 
2760808.770165556 
2760808.770165556 
2760808.770165556 
2760808.770165556 
2760808.770165556 
2760808.770165556 
2760808.770165556 
2760808.770165556 
2760808.770165556 
2760808.7701579845 
2760808.769285349 
2760808.689695725 
2760803.3282373813 
2760551.99154814 
2753105.3509777626 
2635837.690854011 
1903132.86948239 
1280495.121619601 
9377110.909188509 
9377110.909188509 
9377110.909188509 
9377110.909188509 
9377110.909188509 
9377110.909188509 
9377110.909188509 
9377110.909188509 
9377110.909188509 
9377110.909188509 
9377110.909188509 
9377110.909188509 
9377110.90917914 
9377110.908060273 
9377110.801974656 
9377103.258991873 
9376719.566650497 
9363746.983553082 
9104240.456479345 
6705000.685633816 
4552671.113099325 
13804088.139810927 
13804088.139810927 
13804088.139810927 
13804088.139810927 
13804088.139810927 
13804088.139810927 
13804088.139810927 
13804088.139810927 
13804088.139810927 
13804088.139810927 
13804088.139810927 
13804088.139810927 
13804088.139800835 
13804088.138586197 
13804088.02199506 
13804079.582660839 
13803639.249618705 
13788080.319647051 
13455303.245312694 
9999332.986317096 
6861012.880778702 
</DataArray>
<DataArray type="Float64" Name="sigma_yy" NumberOfComponents="1" format="ascii" >
0.0 
0.0 
0.0 
0.0 
0.0 
0.0 
0.0 
0.0 
0.0 
0.0 
0.0 
0.0 
0.0 
0.0 
0.0 
0.0 
0.0 
0.0 
0.0 
0.0 
0.0 
0.0 
0.0 
0.0 
0.0 
0.0 
0.0 
0.0 
0.0 
0.0 
0.0 
0.0 
0.0 
0.0 
0.0 
0.0 
0.0 
0.0 
0.0 
0.0 
0.0 
0.0 
0.0 
0.0 
0.0 
0.0 
0.0 
0.0 
0.0 
0.0 
0.0 
0.0 
0.0 
0.0 
0.0 
0.0 
0.0 
0.0 
0.0 
0.0 
0.0 
0.0 
0.0 
0.0 
0.0 
0.0 
0.0 
0.0 
0.0 
0.0 
0.0 
0.0 
0.0 
0.0 
0.0 
0.0 
0.0 
0.0 
0.0 
0.0 
0.0 
0.0 
0.0 
0.0 
0.0 
0.0 
0.0 
0.0 
0.0 
0.0 
0.0 
0.0 
0.0 
0.0 
0.0 
0.0 
0.0 
0.0 
0.0 
0.0 
0.0 
0.0 
0.0 
0.0 
0.0 
0.0 
0.0 
0.0 
0.0 
0.0 
0.0 
0.0 
0.0 
0.0 
0.0 
0.0 
0.0 
0.0 
0.0 
0.0 
0.0 
0.0 
0.0 
0.0 
0.0 
0.0 
0.0 
0.0 
0.0 
0.0 
0.0 
0.0 
0.0 
0.0 
0.0 
0.0 
0.0 
0.0 
0.0 
0.0 
0.0 
0.0 
0.0 
0.0 
0.0 
0.0 
0.0 
0.0 
0.0 
0.0 
0.0 
0.0 
0.0 
0.0 
0.0 
0.0 
0.0 
0.0 
0.0 
0.0 
0.0 
0.0 
0.0 
0.0 
0.0 
0.0 
0.0 
0.0 
0.0 
0.0 
0.0 
0.0 
0.0 
0.0 
0.0 
0.0 
0.0 
0.0 
0.0 
0.0 
0.0 
0.0 
0.0 
0.0 
0.0 
0.0 
0.0 
0.0 
0.0 
0.0 
0.0 
0.0 
0.0 
0.0 
0.0 
0.0 
0.0 
0.0 
0.0 
0.0 
0.0 
0.0 
0.0 
0.0 
0.0 
0.0 
0.0 
0.0 
0.0 
0.0 
0.0 
0.0 
0.0 
0.0 
0.0 
0.0 
0.0 
0.0 
0.0 
0.0 
0.0 
0.0 
0.0 
0.0 
0.0 
0.0 
0.0 
0.0 
0.0 
0.0 
0.0 
2.9154456626656604e-05 
2.9154456626656604e-05 
2.9154456626656604e-05 
2.9154456626656604e-05 
2.9154456626656604e-05 
2.9154456626656604e-05 
2.9154456626656604e-05 
2.9154456626656604e-05 
2.9154456626656604e-05 
2.9154456626656604e-05 
2.9154456626656604e-05 
2.9154456626656604e-05 
2.9154456626656604e-05 
2.9154456626656604e-05 
2.8971269827593453e-05 
2.8682611841190912e-05 
2.78832512634608e-05 
2.636224571972434e-05 
2.358113704303832e-05 
1.9723112032465903e-05 
1.781907954523376e-05 
0.0034295455364485856 
0.0034295455364485856 
0.0034295455364485856 
0.0034295455364485856 
0.0034295455364485856 
0.0034295455364485856 
0.0034295455364485856 
0.0034295455364485856 
0.0034295455364485856 
0.0034295455364485856 
0.0034295455364485856 
0.0034295455364485856 
0.0034295455364485856 
0.0034281355532073117 
0.003419903249479716 
0.0033893332584966625 
0.003306954710069476 
0.0031270486200440924 
0.0028005597840774494 
0.0023814783478570685 
0.0021676105355084014 
0.30689568664143957 
0.30689568664143957 
0.30689568664143957 
0.30689568664143957 
0.30689568664143957 
0.30689568664143957 
0.30689568664143957 
0.30689568664143957 
0.30689568664143957 
0.30689568664143957 
0.30689568664143957 
0.30689568664143957 
0.3068956477836337 
0.3068862608479605 
0.3065400988599975 
0.3048484631396064 
0.2991358938331245 
0.2851548108750989 
0.25762147970453947 