<?xml version="1.0"?>
<VTKFile type="UnstructuredGrid" version="0.1" byte_order="LittleEndian" compressor="vtkZLibDataCompressor">
<UnstructuredGrid>
<Piece NumberOfPoints="441" NumberOfCells="400">
<PointData>
<DataArray type="Float64" Name="displacement" NumberOfComponents="3" format="ascii" >
0.0 4.949401782965434e-38  0.
7.661959022316403e-38 2.7107783078414853e-38  0.
1.193897729681571e-37 1.573869687178487e-38  0.
1.1466228478814362e-37 -2.0537364897498497e-38  0.
4.3544417175160195e-38 -5.050052044938536e-38  0.
-1.5553022788034932e-37 -1.4850867200556862e-37  0.
-8.211773220094962e-37 -5.165534029912695e-37  0.
-4.08046560053138e-36 -2.7399417673346487e-36  0.
-2.5493272120269714e-35 -1.8665191459811187e-35  0.
-1.1523608290920027e-34 -7.103377434383592e-35  0.
-3.2485206296325457e-34 -1.3879270268851487e-34  0.
-7.352550832881049e-34 -2.708681115214161e-34  0.
-1.313180382112057e-33 -3.083254053695219e-34  0.
-2.0562057177218335e-33 -4.3361518274386585e-34  0.
-2.8482111791267574e-33 -3.584010181972457e-34  0.
-3.6393181675184815e-33 -4.338801774854644e-34  0.
-4.2601528221203436e-33 -1.8539981281307494e-34  0.
-4.4424170230904396e-33 -1.2354313448506358e-36  0.
-3.936274541103185e-33 5.330055043517664e-34  0.
-2.4253669735189007e-33 7.884909899022003e-34  0.
-1.4274136309216946e-33 1.8042575239048945e-33  0.
0.0 7.178676884512354e-36  0.
2.1443385200088414e-35 1.4303202829139383e-35  0.
3.4017333730182726e-35 -1.5993621892711197e-36  0.
3.0715632929374964e-35 -1.790376835882352e-36  0.
1.751278919610319e-35 -1.1434336568890351e-35  0.
-1.1849042556510712e-35 -1.8145577878705206e-35  0.
-8.866175050445898e-35 -5.93234835069345e-35  0.
-4.159779448696908e-34 -2.7128953597431824e-34  0.
-2.2485623073884e-33 -1.5823822916183963e-33  0.
-1.8509048263169642e-32 -1.476427768075838e-32  0.
-9.113693393356562e-32 -5.823336699723981e-32  0.
-2.3351626877223727e-31 -8.367612106062812e-32  0.
-4.622532159600706e-31 -1.4765370276927977e-31  0.
-7.0353710507115495e-31 -9.231905129627638e-32  0.
-9.276950782947173e-31 -1.3282738549851173e-31  0.
-1.1100056345647862e-30 -5.179983642432857e-32  0.
-1.2814928446197035e-30 -1.1897544007474774e-31  0.
-1.3748744065106557e-30 2.354912615159146e-32  0.
-1.2570366354570045e-30 1.0614025649088174e-31  0.
-7.995310399574355e-31 2.804400234196128e-31  0.
-4.4961715700708754e-31 5.840956963259704e-31  0.
0.0 1.0291854818873897e-32  0.
1.881378963891558e-32 8.256634444566069e-33  0.
2.5152671200591727e-32 -1.2850654263015657e-33  0.
1.985058705726207e-32 -4.44848490383849e-33  0.
9.668854944618166e-33 -5.610054306222381e-33  0.
-1.1462473840435489e-33 -5.289947772436179e-33  0.
-2.0081747668266202e-32 -1.3799629606171356e-32  0.
-8.213829551348055e-32 -4.894383390896076e-32  0.
-4.099192065705428e-31 -2.823007573375277e-31  0.
-2.19691308112212e-30 -1.5381891914986258e-30  0.
-2.094313835206915e-29 -1.7380928002881777e-29  0.
-1.0983563507150057e-28 -7.072598168680859e-29  0.
-2.551734526419537e-28 -8.036973588719898e-29  0.
-4.425800730543027e-28 -9.985518255625309e-29  0.
-5.42851064070541e-28 -1.4588862448279833e-30  0.
-5.888864311722213e-28 -5.12033074764107e-29  0.
-6.612097279394031e-28 -1.8689302274396457e-29  0.
-7.666391614897161e-28 -8.605501496663673e-29  0.
-7.749713433167412e-28 8.892666657831599e-29  0.
-4.853260383751275e-28 1.3896777330170738e-28  0.
-3.090004463420887e-28 3.9946072723659205e-28  0.
0.0 1.5589823909211275e-29  0.
4.022633778927783e-29 2.0364642058092162e-29  0.
3.741385320074297e-29 -1.6417663590952697e-29  0.
1.3557270465927955e-29 -1.0082411531759897e-29  0.
1.8045479803837238e-30 -1.489360732304552e-30  0.
-3.0741132239063638e-31 -6.504203995858007e-31  0.
-3.507294775267869e-30 -2.58804348681305e-30  0.
-2.1533772275176363e-29 -1.5522689595160364e-29  0.
-7.804410625552496e-29 -4.144780240458109e-29  0.
-4.197450759319216e-28 -3.0438421178322665e-28  0.
-2.1075625022399967e-27 -1.446915791208865e-27  0.
-1.6274605725230877e-26 -1.2744942972044525e-26  0.
-1.1211324550918574e-25 -8.908131514826318e-26  0.
-4.1083451854771804e-25 -1.340106234804476e-25  0.
-4.57366168636307e-25 8.630019655983934e-26  0.
-2.484067639032321e-25 4.84392066757008e-26  0.
-2.74316570590387e-25 -7.239245509071527e-26  0.
-4.428845914817916e-25 -6.477617865019505e-26  0.
-5.2068363845309695e-25 -6.825587460944934e-28  0.
-3.26702057870824e-25 1.0942094009839262e-25  0.
-2.0124857812470357e-25 2.62678139189096e-25  0.
0.0 1.940778996646743e-21  0.
1.831230710555506e-25 1.940461342125718e-21  0.
1.356999914539044e-26 1.940544626866439e-21  0.
7.8656034950338554e-28 1.9405572185655034e-21  0.
5.98598222325327e-29 1.940557826134866e-21  0.
-3.4930635017472836e-29 1.9405578581916828e-21  0.
-3.652410935886071e-28 1.9405575904907303e-21  0.
-2.8657811441989424e-27 1.9405556654713167e-21  0.
-2.1398813332072904e-26 1.940541064204078e-21  0.
-6.615806014283364e-26 1.9405280994761976e-21  0.
-4.364892585562473e-25 1.940207480137587e-21  0.
-2.6057590389231506e-24 1.9391429931320404e-21  0.
-8.042386566928437e-24 1.9362536272807908e-21  0.
-1.3574026934996448e-22 1.845203449889468e-21  0.
-1.491224184841177e-22 1.2479314806174384e-21  0.
-5.469527589152896e-23 1.1534836280262593e-21  0.
-7.400034925188102e-23 1.158623484611023e-21  0.
-1.8496628682490905e-22 1.0822035788047642e-21  0.
-2.5584576796957237e-22 6.063538238221621e-22  0.
-2.068636272777942e-22 1.661574873451831e-22  0.
-2.322669507307629e-22 2.7788204604879567e-22  0.
0.0 2.1500726140232638e-19  0.
8.966030094419499e-24 2.1549293924088475e-19  0.
1.9833497276429095e-25 2.1549874090246716e-19  0.
1.0433490345504546e-26 2.1549894180309653e-19  0.
-2.206137386169624e-28 2.1549895393433528e-19  0.
-1.3120644782494386e-28 2.1549895372797605e-19  0.
-1.9851117296304655e-26 2.154989337963425e-19  0.
-1.879838871638869e-25 2.1549879540160982e-19  0.
-1.7976117619928998e-24 2.1549741491741169e-19  0.
-1.5553873307744815e-23 2.1548851644835742e-19  0.
-4.091090368577872e-23 2.154894236790856e-19  0.
-2.7369047161863723e-22 2.1530977613493466e-19  0.
-7.388454942293108e-22 2.1343498161895135e-19  0.
-1.6858843634584802e-21 2.12227470729763e-19  0.
-2.7012843596528183e-21 2.078281294341692e-19  0.
-5.275333014887747e-21 2.0043442027315455e-19  0.
-7.646281397771726e-21 1.8550471024727607e-19  0.
-1.0602072360115976e-20 1.7037377332229694e-19  0.
-1.4293805396066442e-20 1.438201058108722e-19  0.
-1.8221390908429265e-20 1.1701383901358845e-19  0.
-6.075428558617389e-20 1.1904716136847978e-19  0.
0.0 8.30909301207209e-18  0.
2.308975644712563e-23 8.311274154096573e-18  0.
1.9609486840477433e-26 8.311312008043226e-18  0.
-2.4384393356042536e-26 8.311312416866791e-18  0.
-2.6361448846473835e-27 8.311312425506926e-18  0.
-1.3262168253433253e-27 8.311312421000131e-18  0.
-5.432439707618941e-26 8.311312333175558e-18  0.
-5.916972692302986e-24 8.311306132754362e-18  0.
-6.394868159271397e-23 8.311263803535479e-18  0.
-6.394691318840766e-22 8.310840802097627e-18  0.
-3.4392245997231416e-21 8.306306154515853e-18  0.
-6.899146824976224e-21 8.295771190292912e-18  0.
-2.0266448846654493e-20 8.272524490011817e-18  0.
-4.6737372267112456e-20 8.209890416062146e-18  0.
-9.343175132914041e-20 8.075635395615339e-18  0.
-1.694720340792119e-19 7.831477572960543e-18  0.
-2.759669216286119e-19 7.405456713855135e-18  0.
-4.128066767283021e-19 6.753987277315799e-18  0.
-5.685480982740671e-19 5.8298116513402816e-18  0.
-7.634897545616574e-19 4.635495866618654e-18  0.
-2.4797621768348698e-18 4.718670553206116e-18  0.
0.0 2.766938099183376e-16  0.
-3.1532380009878904e-22 2.766934546263079e-16  0.
7.710254539515561e-26 2.7669328291113484e-16  0.
-2.2749498968433736e-25 2.7669328291966016e-16  0.
3.874960333309284e-27 2.7669328266813946e-16  0.
-4.030574336368276e-27 2.7669328265874393e-16  0.
-1.191500119363328e-24 2.7669328141635875e-16  0.
-2.8061491982271755e-23 2.766932418775051e-16  0.
-1.4879019545106501e-21 2.7669179342681926e-16  0.
-1.2921502857466204e-20 2.7667865102708057e-16  0.
-5.990276344775935e-20 2.766113685436927e-16  0.
-1.8703976893424823e-19 2.763862665277643e-16  0.
-5.321552159952513e-19 2.75721344974433e-16  0.
-1.2862191743772745e-18 2.7403356795826807e-16  0.
-2.7372139829353706e-18 2.7028510497558288e-16  0.
-5.164139440116196e-18 2.6289281121004785e-16  0.
-8.784940853500512e-18 2.4980796176061367e-16  0.
-1.3566815785198037e-17 2.28798413865684e-16  0.
-1.9145556396336323e-17 1.98070161973381e-16  0.
-2.6147861804832006e-17 1.5814102294138033e-16  0.
-8.498255687908277e-17 1.615331596819043e-16  0.
0.0 7.91541477950858e-15  0.
-3.1072116793583968e-22 7.915408827014759e-15  0.
-1.3776183048322507e-23 7.915409226177378e-15  0.
4.86049443583815e-25 7.915409214087936e-15  0.
1.7044847409388547e-26 7.91540921401947e-15  0.
-1.494410490896841e-26 7.91540921400933e-15  0.
-2.0143016571387213e-24 7.915409209057372e-15  0.
-5.65806996069707e-22 7.915408239495472e-15  0.
-1.6171702712452253e-20 7.915394675311896e-15  0.
-1.668154401891854e-19 7.915238126577663e-15  0.
-8.847667983529094e-19 7.914320498779551e-15  0.
-3.558405637569404e-18 7.910358507665882e-15  0.
-1.1236477260356675e-17 7.896940143908293e-15  0.
-2.9883830972231517e-17 7.859317268808754e-15  0.
-6.77907849388426e-17 7.769425434993744e-15  0.
-1.3530821363618943e-16 7.58162016960891e-15  0.
-2.3955968121691907e-16 7.233795527743023e-15  0.
-3.819315945709553e-16 6.65571152982492e-15  0.
-5.521368712551772e-16 5.787453818048247e-15  0.
-7.693924570754059e-16 4.640195476823697e-15  0.
-2.506017443502953e-15 4.757687758567549e-15  0.
0.0 1.921509361684446e-13  0.
-8.81320260659859e-22 1.9215094074551003e-13  0.
3.730330256834081e-23 1.92150939979765e-13  0.
8.82396151084009e-25 1.9215093998818736e-13  0.
3.170973240828638e-26 1.9215093998941288e-13  0.
-1.2588912760160698e-25 1.921509399893075e-13  0.
-1.1812875363452512e-23 1.9215093997095987e-13  0.
-2.766701094003934e-21 1.9215093822871545e-13  0.
-8.707570229846535e-20 1.9215087590482742e-13  0.
-1.1515568540269239e-18 1.9214997480773433e-13  0.
-1.0231834336630288e-17 1.9214055594855688e-13  0.
-5.033549899227697e-17 1.9208839900936264e-13  0.
-1.904482627168509e-16 1.9187583182789388e-13  0.
-5.611221953162075e-16 1.9120299046109252e-13  0.
-1.395006820817297e-15 1.894344336315366e-13  0.
-2.9552338021110066e-15 1.8547510609410037e-13  0.
-5.507444671906102e-15 1.7773517495846467e-13  0.
-9.089253247194931e-15 1.6433992157971946e-13  0.
-1.3521000987128944e-14 1.435997789572384e-13  0.
-1.9264597112540885e-14 1.1568003482220486e-13  0.
-6.286878243344255e-14 1.191471271804829e-13  0.
0.0 3.899913188017429e-12  0.
4.689170479546847e-22 3.8999131945379575e-12  0.
1.5723907427342626e-23 3.899913195397243e-12  0.
2.268910630166812e-25 3.899913195464489e-12  0.
1.6472343540553274e-26 3.8999131954666204e-12  0.
-4.084061778146e-25 3.899913195466057e-12  0.
-5.628854814609508e-23 3.8999131953763196e-12  0.
-1.2452349370209037e-20 3.899913187250393e-12  0.
-3.3621748533444967e-19 3.899912991052604e-12  0.
-5.504667694213368e-18 3.899909290371638e-12  0.
-6.647137254243785e-17 3.8998581340550586e-12  0.
-5.312441219277378e-16 3.8993731165800946e-12  0.
-2.4030468974274043e-15 3.896892184863288e-12  0.
-8.429179172593508e-15 3.887484388405916e-12  0.
-2.3028559987722176e-14 3.859751317143864e-12  0.
-5.318381917724067e-14 3.791848546669292e-12  0.
-1.0450065074591055e-13 3.650368086142735e-12  0.
-1.8061563597912136e-13 3.3932931684458096e-12  0.
-2.766550956078843e-13 2.981046828337149e-12  0.
-4.0544973405816186e-13 2.4145690979723087e-12  0.
-1.32215563550358e-12 2.500334488937106e-12  0.
0.0 6.500615615275399e-11  0.
5.376536519582241e-22 6.50061561426835e-11  0.
-9.172289478242099e-23 6.500615614275702e-11  0.
-6.58670351926147e-25 6.500615614271825e-11  0.
5.4325385692672124e-27 6.500615614271988e-11  0.
-2.1231977558029363e-24 6.500615614271667e-11  0.
-4.560341956265056e-22 6.500615614205926e-11  0.
-4.0179185423674776e-20 6.500615611897727e-11  0.
-1.0412922882398786e-18 6.500615558210989e-11  0.
-2.0121979057350417e-17 6.5006143964592e-11  0.
-2.988736739930983e-16 6.500594810931968e-11  0.
-3.2071464344026717e-15 6.500352482507072e-11  0.
-2.2727253987869784e-14 6.498300563330256e-11  0.
-9.384241555148328e-14 6.48866759155527e-11  0.
-3.0261248615320363e-13 6.45494115244209e-11  0.
-7.606036339996496e-13 6.363031053999982e-11  0.
-1.618698319441672e-12 6.155020538772891e-11  0.
-2.9267695402507913e-12 5.754804855909624e-11  0.
-4.668631940776543e-12 5.085739618855861e-11  0.
-7.041635194669215e-12 4.145289706954291e-11  0.
-2.293070866770032e-11 4.321907118840041e-11  0.
0.0 8.707041871714648e-10  0.
-4.907352408087963e-21 8.707041871646682e-10  0.
3.180479250432361e-23 8.707041871630286e-10  0.
3.190691815232009e-26 8.707041871628918e-10  0.
5.51913791955955e-26 8.707041871628927e-10  0.
-5.4941585000743555e-24 8.707041871628801e-10  0.
-2.1737004765504092e-21 8.707041871613884e-10  0.
-1.0247203260416628e-19 8.707041871178009e-10  0.
-2.7467813015197078e-18 8.707041858884555e-10  0.
-5.955093445131447e-17 8.707041563711623e-10  0.
-1.0257662449288167e-15 8.707035858757022e-10  0.
-1.3450522860036192e-14 8.706950388471499e-10  0.
-1.2654656615599958e-13 8.706014947848235e-10  0.
-7.847606792728853e-13 8.699030824686144e-10  0.
-2.931226981381325e-12 8.669207920239392e-10  0.
-8.59936600876019e-12 8.573724545644793e-10  0.
-1.9694085822893172e-11 8.335388934367662e-10  0.
-3.82440092898318e-11 7.841697464684505e-10  0.
-6.328510313258234e-11 6.975510273087793e-10  0.
-9.941110505787874e-11 5.728143063372484e-10  0.
-3.2079967643695357e-10 6.022321492830252e-10  0.
0.0 9.121110172461524e-09  0.
-4.539349382228472e-21 9.121110172461149e-09  0.
2.5119024768278724e-23 9.121110172462042e-09  0.
-7.248321796154561e-24 9.121110172462125e-09  0.
5.588965310347639e-25 9.121110172462113e-09  0.
3.657908858702102e-24 9.121110172462097e-09  0.
-5.4560128694920625e-21 9.121110172460303e-09  0.
-2.2174485990735764e-19 9.121110172381582e-09  0.
-6.2494083298591114e-18 9.121110169988974e-09  0.
-1.479462341173597e-16 9.121110107608814e-09  0.
-2.844990506703398e-15 9.121108770425442e-09  0.
-4.306013792018894e-14 9.121085887534281e-09  0.
-4.915014282239377e-13 9.120784853237847e-09  0.
-3.991640029874958e-12 9.1179112989279e-09  0.
-2.1316600441526796e-11 9.099300457391858e-09  0.
-7.123006001167774e-11 9.027829198198645e-09  0.
-1.875528868415468e-10 8.821173314385792e-09  0.
-3.868125745430091e-10 8.354441775588443e-09  0.
-6.805184463164785e-10 7.484426495275045e-09  0.
-1.1087833171622956e-09 6.200790857363717e-09  0.
-3.5363789868848788e-09 6.594090593396693e-09  0.
0.0 7.221720543738945e-08  0.
5.098271900902335e-22 7.221720543739592e-08  0.
-6.111438892956811e-23 7.22172054373935e-08  0.
1.458700559647195e-23 7.221720543739354e-08  0.
1.5149744829935302e-23 7.221720543739353e-08  0.
1.7028538678824405e-23 7.221720543739351e-08  0.
-9.829173419805381e-21 7.221720543739056e-08  0.
-4.1268796012012355e-19 7.221720543727628e-08  0.
-1.2468566063578779e-17 7.221720543326314e-08  0.
-3.15824676616866e-16 7.221720532150149e-08  0.
-6.604769542861e-15 7.221720273027309e-08  0.
-1.1112947998483666e-13 7.221715377010867e-08  0.
-1.4565323379524805e-12 7.221642150369633e-08  0.
-1.4227191093812692e-11 7.220809228288876e-08  0.
-9.779875165070978e-11 7.213996806480088e-08  0.
-4.4095426525726065e-10 7.176514211154891e-08  0.
-1.2997424519180144e-09 7.04897037863955e-08  0.
-3.0181516199001413e-09 6.721675199575492e-08  0.
-5.563979165295499e-09 6.068129366769215e-08  0.
-9.613364698914365e-09 5.0827819544094236e-08  0.
-2.9656074560165435e-08 5.485180561662704e-08  0.
0.0 4.1363741542182297e-07  0.
1.2081763976609663e-21 4.136374154218193e-07  0.
4.0435817497690895e-22 4.136374154218222e-07  0.
-3.863886937561747e-23 4.1363741542182197e-07  0.
5.343028512731697e-24 4.1363741542182197e-07  0.
2.6481632592895155e-23 4.136374154218218e-07  0.
-1.5735681929775195e-20 4.1363741542181953e-07  0.
-7.006853556500329e-19 4.136374154216434e-07  0.
-2.2037881096886655e-17 4.1363741541579125e-07  0.
-5.887771620897107e-16 4.1363741524477964e-07  0.
-1.312774115976775e-14 4.136374110342752e-07  0.
-2.39167766483962e-13 4.136373253206895e-07  0.
-3.4669666800634183e-12 4.1363591736997484e-07  0.
-3.863766899143033e-11 4.1361780468408694e-07  0.
-3.160185986940273e-10 4.134431117429205e-07  0.
-1.7925360168919546e-09 4.1224700342005686e-07  0.
-6.6593467558597135e-09 4.068081933810016e-07  0.
-1.7012766751900016e-08 3.9076371990100793e-07  0.
-3.4389209990287317e-08 3.555174059380598e-07  0.
-6.221871253182999e-08 3.019408741332707e-07  0.
-1.8266703504943049e-07 3.328875469387068e-07  0.
0.0 1.6218542647650075e-06  0.
-3.5183655994747906e-22 1.6218542647650094e-06  0.
1.7001252468405498e-22 1.6218542647650075e-06  0.
-3.849471560277651e-22 1.621854264765009e-06  0.
6.096108792652282e-22 1.6218542647650073e-06  0.
1.1808560921425935e-21 1.6218542647650099e-06  0.
-2.5096407316984535e-20 1.6218542647650046e-06  0.
-1.0712591113902205e-18 1.6218542647647964e-06  0.
-3.480872233260378e-17 1.6218542647574588e-06  0.
-9.685448457013542e-16 1.6218542645348365e-06  0.
-2.2668432640643904e-14 1.621854258797571e-06  0.
-4.3819557021187377e-13 1.6218541353848605e-06  0.
-6.840522965594128e-12 1.621851961532844e-06  0.
-8.377738990806703e-11 1.6218214414475244e-06  0.
-7.754467671055878e-10 1.6214904041633056e-06  0.
-5.1615658684116565e-09 1.618850362325449e-06  0.
-2.336044423996167e-08 1.6041983976796766e-06  0.
-6.956049871680455e-08 1.5513140952015177e-06  0.
-1.528812328311381e-07 1.423169168200426e-06  0.
-2.9607642653286376e-07 1.2316952137269884e-06  0.
-7.828994436677954e-07 1.396121837781753e-06  0.
0.0 4.116669272853934e-06  0.
-8.92129442634923e-22 4.116669272853929e-06  0.
2.1847789316664786e-21 4.1166692728539365e-06  0.
1.0682382792770192e-21 4.116669272853936e-06  0.
1.1208444844143356e-21 4.1166692728539365e-06  0.
2.403999769606796e-21 4.116669272853935e-06  0.
-3.4619815986571e-20 4.11666927285393e-06  0.
-1.4794486021739358e-18 4.116669272853718e-06  0.
-4.935412817405484e-17 4.116669272845999e-06  0.
-1.4148368575087943e-15 4.116669272604863e-06  0.
-3.4310013963282714e-14 4.116669266178971e-06  0.
-6.92371857480221e-13 4.116669122152754e-06  0.
-1.139727849388123e-11 4.11666645654073e-06  0.
-1.4925921779333049e-10 4.116626539094657e-06  0.
-1.5058197596502863e-09 4.116157496654601e-06  0.
-1.1223415838653216e-08 4.111975181332931e-06  0.
-5.855063544853643e-08 4.085312575445788e-06  0.
-2.0290982608524792e-07 3.971711103952125e-06  0.
-4.820884563292485e-07 3.677897498791462e-06  0.
-1.0037374225878227e-06 3.2796239653472923e-06  0.
-2.2177683548224215e-06 3.827337010890062e-06  0.
0.0 6.8228015292414765e-06  0.
6.5188505853879885e-24 6.822801529241485e-06  0.
-1.581877547952407e-21 6.822801529241479e-06  0.
5.202269800749118e-22 6.822801529241482e-06  0.
-1.9059800481588672e-21 6.822801529241481e-06  0.
-2.149257024687092e-21 6.822801529241479e-06  0.
-4.6852045106549835e-20 6.822801529241474e-06  0.
-1.8605011152411607e-18 6.8228015292413e-06  0.
-6.307170146141328e-17 6.822801529234791e-06  0.
-1.845514591409549e-15 6.822801529027611e-06  0.
-4.5852173610793487e-14 6.822801523374592e-06  0.
-9.527104575178249e-13 6.822801393116215e-06  0.
-1.6254399823064486e-11 6.822798896291223e-06  0.
-2.226345162699134e-10 6.822759905819552e-06  0.
-2.379194182168538e-09 6.822274499751915e-06  0.
-1.912430245019447e-08 6.817627106253948e-06  0.
-1.102556084462617e-07 6.784730425462607e-06  0.
-4.311143597267667e-07 6.626965797312457e-06  0.
-1.1170156318610616e-06 6.1953394210678435e-06  0.
-2.2889899468767708e-06 5.8374145352370465e-06  0.
-4.050432841584469e-06 6.843353620350414e-06  0.
0.0 9.019461745616379e-06  0.
2.4941865193176716e-21 9.019461745616382e-06  0.
-1.3573324723751723e-21 9.019461745616384e-06  0.
1.4369275890539694e-21 9.019461745616377e-06  0.
8.157985958103438e-22 9.019461745616375e-06  0.
-1.2981006745706354e-21 9.019461745616377e-06  0.
-5.3135200217360034e-20 9.019461745616373e-06  0.
-2.1282219442215694e-18 9.019461745616275e-06  0.
-7.29707782539173e-17 9.01946174561253e-06  0.
-2.1610173932772377e-15 9.019461745491663e-06  0.
-5.445772740643302e-14 9.019461742150725e-06  0.
-1.1509118187985208e-12 9.019461663900198e-06  0.
-2.0048569354574688e-11 9.019460135400224e-06  0.
-2.8181551037214594e-10 9.019435640555356e-06  0.
-3.1140428677671425e-09 9.019121313864842e-06  0.
-2.6165808943884133e-08 9.015967011356299e-06  0.
-1.6041316878440243e-07 8.992345138066411e-06  0.
-6.815519965942877e-07 8.869390999099084e-06  0.
-1.9052795741886588e-06 8.5161191618005e-06  0.
-3.50859822919612e-06 8.444310698234104e-06  0.
-4.8908959040318014e-06 9.34071968906371e-06  0.
0.0 1.145000000000002e-05  0.
-2.9838448052246623e-21 1.145000000000002e-05  0.
2.6686265522309855e-21 1.145000000000002e-05  0.
-3.294938327782506e-21 1.145000000000002e-05  0.
4.528894309061347e-21 1.145000000000002e-05  0.
-3.191882164739441e-21 1.145000000000002e-05  0.
-5.562191349896276e-20 1.145000000000002e-05  0.
-2.2248443374452123e-18 1.145000000000002e-05  0.
-7.659086010403937e-17 1.145000000000002e-05  0.
-2.2772881433083674e-15 1.145000000000002e-05  0.
-5.76553344971901e-14 1.145000000000002e-05  0.
-1.225325570874948e-12 1.145000000000002e-05  0.
-2.1490140550434176e-11 1.145000000000002e-05  0.
-3.0467495405585495e-10 1.145000000000002e-05  0.
-3.4034857871852523e-09 1.145000000000002e-05  0.
-2.9029776174248234e-08 1.145000000000002e-05  0.
-1.8171128883917208e-07 1.145000000000002e-05  0.
-7.961196839125703e-07 1.145000000000002e-05  0.
-2.2938149281303494e-06 1.145000000000002e-05  0.
-3.963497797761377e-06 1.145000000000002e-05  0.
-4.865955703846934e-06 1.145000000000002e-05  0.
</DataArray>
<DataArray type="Float64" Name="sigma_xx" NumberOfComponents="1" format="ascii" >
0.0 
0.0 
0.0 
0.0 
0.0 
0.0 
0.0 
0.0 
0.0 
0.0 
0.0 
0.0 
0.0 
0.0 
0.0 
0.0 
0.0 
0.0 
0.0 
0.0 
0.0 
0.0 
0.0 
0.0 
0.0 
0.0 
0.0 
0.0 
0.0 
0.0 
0.0 
0.0 
0.0 
0.0 
0.0 
0.0 
0.0 
0.0 
0.0 
0.0 
0.0 
0.0 
0.0 
0.0 
0.0 
0.0 
0.0 
0.0 
0.0 
0.0 
0.0 
0.0 
0.0 
0.0 
0.0 
0.0 
0.0 
0.0 
0.0 
0.0 
0.0 
0.0 
0.0 
0.0 
0.0 
0.0 
0.0 
0.0 
0.0 
0.0 
0.0 
0.0 
0.0 
0.0 
0.0 
0.0 
0.0 
0.0 
0.0 
0.0 
0.0 
0.0 
0.0 
0.0 
6.217248937900875e-07 
6.217248937900875e-07 
6.217248937900875e-07 
6.217248937900875e-07 
6.217248937900875e-07 
6.217248937900875e-07 
6.217248937900875e-07 
6.217248937900875e-07 
6.217248937900875e-07 
6.217248937900875e-07 
6.217248937900875e-07 
6.217248937900875e-07 
6.217248937900875e-07 
5.440092820663265e-07 
3.885780586188047e-07 
3.108624468950437e-07 
3.108624468950437e-07 
3.108624468950437e-07 
3.108624468950437e-07 
2.3869795029440855e-07 
1.6653345369377343e-07 
2.331468351712828e-05 
2.331468351712828e-05 
2.331468351712828e-05 
2.331468351712828e-05 
2.331468351712828e-05 
2.331468351712828e-05 
2.331468351712828e-05 
2.331468351712828e-05 
2.331468351712828e-05 
2.331468351712828e-05 
2.331468351712828e-05 
2.331468351712828e-05 
2.3164803408803884e-05 
2.277622535018508e-05 
2.2082335959794357e-05 
2.1238566461079238e-05 
2.0000667788622188e-05 
1.8213208718975686e-05 
1.557642903549094e-05 
1.123545700920658e-05 
8.593126210598708e-06 
0.000774358355215554 
0.000774358355215554 
0.000774358355215554 
0.000774358355215554 
0.000774358355215554 
0.000774358355215554 
0.000774358355215554 
0.000774358355215554 
0.0007742806396038302 
0.000774053043883782 
0.0007735256879470851 
0.0007723099937351206 
0.0007692679826476476 
0.0007622347197866473 
0.000748190398525139 
0.0007230938070534874 
0.0006816880393500922 
0.0006192379942149271 
0.0005305644812381158 
0.00038195557827691557 
0.00028509417049349384 
0.022140245192758805 
0.022140245192758805 
0.022140245192758805 
0.022140245192758805 
0.022140245192758805 
0.022140245192758805 
0.022140245192758805 
0.022140245192758805 
0.02213979555243383 
0.02213762506642069 
0.022129448273844325 
0.022103940899853562 
0.0220341467294105 
0.021867424537802542 
0.021516100012775034 
0.020855367433014742 
0.019730000966333698 
0.017980611444201593 
0.015456580459982654 
0.011150025347461675 
0.008318090660708318 
0.5372481792775827 
0.5372481792775827 
0.5372481792775827 
0.5372481792775827 
0.5372481792775827 
0.5372481792775827 
0.5372481792775827 
0.5372480293974744 
0.5372455258445539 
0.5372238154333073 
0.5371157241196298 
0.5366993183208988 
0.5354247822886291 
0.5321196816510108 
0.5247373591199531 
0.5101514155558815 
0.48437959754288307 
0.4431327971232689 
0.3822538285902509 
0.27608400565704005 
0.20575631198838085 
10.89759378292143 
10.89759378292143 
10.89759378292143 
10.89759378292143 
10.89759378292143 
10.89759378292143 
10.89759378292143 
10.897593050174233 
10.897580887680999 
10.897437446866217 
10.89632513107119 
10.89118564778779 
10.872725481059216 
10.82014042252943 
10.692956270430539 
10.427725966044573 
9.938090889116676 
9.129125566609272 
7.9037156597294675 
5.713490847103484 
4.2530154731323915 
181.47922486999585 
181.47922479228023 
181.47922471456462 
181.47922471456462 
181.47922471456462 
181.47922471456462 
181.47922464240014 
181.47922209443828 
181.47917461575065 
181.47849849547976 
181.47156826686654 
181.42401138621085 
181.22340447179747 
180.56040431702053 
178.8159299964675 
174.90740731873615 
167.34613582092265 
154.37465392953425 
134.15684738948823 
97.01856042154672 
72.02017023311132 
2427.0537951398546 
2427.0537951398546 
2427.053795139854 
2427.053795139854 
2427.053795139854 
2427.053795139854 
2427.0537949233603 
2427.053787579235 
2427.0536378823144 
2427.051183906403 
2427.020607775886 
2426.747062889144 
2425.1075331827014 
2418.8590108387134 
2400.0538590890346 
2354.7598517276165 
2261.5598059189106 
2095.387507583534 
1827.7143356171248 
1320.9624310173135 
977.5683174451094 
25357.28365722355 
25357.28365730127 
25357.283657378983 
25357.283657378983 
25357.283657378983 
25357.283657378983 
25357.283656873835 
25357.28363930455 
25357.283244714636 
25357.27600856407 
25357.172045281644 
25356.050220792786 
25347.433467820527 
25303.084989672367 
25152.304249398396 
24744.726222009063 
23856.266015767615 
22192.88888292425 
19423.544522759177 
14006.40196637381 
10290.133111429119 
199781.5412226655 
199781.5412226655 
199781.5412226655 
199781.5412226655 
199781.5412226655 
199781.5412226655 
199781.5412214387 
199781.54118470696 
199781.54028777996 
199781.52234670913 
199781.23541106723 
199777.6847149912 
199745.11875704976 
199534.96724397494 
198626.00810500723 
195915.93645943978 
189458.16932388052 
176881.39491427716 
155136.26559343067 
111248.13741057721 
81004.15237271006 
1132983.1915539042 
1132983.1915539042 
1132983.1915539042 
1132983.1915539042 
1132983.1915539042 
1132983.1915539042 
1132983.1915513673 
1132983.1914819728 
1132983.1896937976 
1132983.1514359342 
1132982.4871476043 
1132973.3809281923 
1132878.2560641929 
1132154.6966072873 
1128344.650595536 
1114884.9902254117 
1080548.3426388036 
1010109.0358516136 
885351.8465595564 
627199.571602846 
447415.299318704 
4343397.562118988 
4343397.562118988 
4343397.562118988 
4343397.562118988 
4343397.562118988 
4343397.562118988 
4343397.562115008 
4343397.561997257 
4343397.558837162 
4343397.487602467 
4343396.170225438 
4343376.657555091 
4343152.224807074 
4341225.202798001 
4329473.556981024 
4281032.39691578 
4146668.977247984 
3863074.7726681856 
3355910.225331001 
2313677.450937037 
1590968.0719772438 
10390004.092472723 
10390004.092472723 
10390004.092472723 
10390004.092472723 
10390004.092472723 
10390004.092472723 
10390004.092467094 
10390004.092287805 
10390004.087302003 
10390003.97034053 
10390001.701461732 
10389966.091536578 
10389526.21815038 
10385400.208112406 
10357342.084488291 
10226783.691232959 
9831069.988718051 
9010685.866812093 
7572252.317188285 
4875297.2188799875 
3085885.391325758 
14600584.650932163 
14600584.650932165 
14600584.650932165 
14600584.650932165 
14600584.650932165 
14600584.650932092 
14600584.650924515 
14600584.650677394 
14600584.643615851 
14600584.472999718 
14600581.04533708 
14600524.931581385 
14599795.19093263 
14592500.749933887 
14538856.436301675 
14265157.697170056 
13364788.19642118 
11531750.06770483 
8704834.345489904 
4509302.82714628 
1981346.4273134598 
13761834.633841313 
13761834.633841353 
13761834.633841392 
13761834.633841392 
13761834.63384143 
13761834.633841291 
13761834.633831944 
13761834.633521665 
13761834.624497533 
13761834.401985865 
13761829.823086113 
13761752.674803637 
13760713.697249552 
13749870.764278349 
13665741.885367904 
13207546.673551252 
11593471.170631718 
8280848.507872647 
4319432.8545449525 
781125.5765615397 
-878256.2794284153 
12986207.648598086 
12986207.648598125 
12986207.648598164 
12986207.648598164 
12986207.648598203 
12986207.648597993 
12986207.648587462 
12986207.648231996 
12986207.637790434 
12986207.377250843 
12986201.939894404 
12986108.777848998 
12984828.322181787 
12971125.938246574 
12861406.904211465 
12239709.44737185 
9945850.223230008 
5148487.378933933 
839228.7945776096 
-91687.60511801497 
258662.63318376802 
13644096.315302385 
13644096.315302385 
13644096.315302385 
13644096.315302385 
13644096.315302385 
13644096.315302096 
13644096.315291215 
13644096.31491939 
13644096.303960025 
13644096.029428307 
13644090.273509575 
13643991.106206845 
13642618.988926854 
13627813.423978819 
13508026.815671299 
12820090.373715315 
10239846.969336208 
4796614.062055294 
520700.32413546706 
1092282.8668432718 
2495112.687935005 
</DataArray>
<DataArray type="Float64" Name="sigma_yy" NumberOfComponents="1" format="ascii" >
0.0 
0.0 
0.0 
0.0 
0.0 
0.0 
0.0 
0.0 
0.0 
0.0 
0.0 
0.0 
0.0 
0.0 
0.0 
0.0 
0.0 
0.0 
0.0 
0.0 
0.0 
0.0 
0.0 
0.0 
0.0 
0.0 
0.0 
0.0 
0.0 
0.0 
0.0 
0.0 
0.0 
0.0 
0.0 
0.0 
0.0 
0.0 
0.0 
0.0 
0.0 
0.0 
0.0 
0.0 
0.0 
0.0 
0.0 
0.0 
0.0 
0.0 
0.0 
0.0 
0.0 
0.0 
0.0 
0.0 
0.0 
0.0 
0.0 
0.0 
0.0 
0.0 
0.0 
0.0 
0.0 
0.0 
0.0 
0.0 