<?xml version="1.0"?>
<VTKFile type="UnstructuredGrid" version="0.1" byte_order="LittleEndian" compressor="vtkZLibDataCompressor">
<UnstructuredGrid>
<Piece NumberOfPoints="441" NumberOfCells="400">
<PointData>
<DataArray type="Float64" Name="displacement" NumberOfComponents="3" format="ascii" >
0.0 5.740273337772838e-14  0.
-3.747745684177425e-21 5.740270862343033e-14  0.
-2.570008200298415e-20 5.740268343659756e-14  0.
-1.223588073303623e-19 5.740257004488439e-14  0.
-4.329876136245515e-19 5.740208691479267e-14  0.
-1.4225385447754068e-18 5.740051330581843e-14  0.
-4.2072446454333804e-18 5.739567408561732e-14  0.
-1.1257807862289106e-17 5.738225170113635e-14  0.
-2.753670477613268e-17 5.734845248700412e-14  0.
-6.190262533338356e-17 5.727004762506448e-14  0.
-1.2858400655227444e-16 5.71025037736716e-14  0.
-2.480843159670045e-16 5.677001791457622e-14  0.
-4.464009260676285e-16 5.615522416408315e-14  0.
-7.517192797305463e-16 5.5092090355681704e-14  0.
-1.1882216612676562e-15 5.336720254313946e-14  0.
-1.7672488788470312e-15 5.073493917540576e-14  0.
-2.4785097759051194e-15 4.694819406936991e-14  0.
-3.284151730170316e-15 4.180377116263841e-14  0.
-4.1319517861554675e-15 3.520559398272952e-14  0.
-5.2679564343599865e-15 2.7492711985342588e-14  0.
-1.3299209685531855e-14 2.7667870971556398e-14  0.
0.0 3.370736114378832e-13  0.
-1.986586314391852e-20 3.370736008430251e-13  0.
-9.084109730989772e-20 3.370735249187343e-13  0.
-4.1310497605538274e-19 3.3707315069547073e-13  0.
-1.6787822764095244e-18 3.3707154723634795e-13  0.
-5.960788641680887e-18 3.370655749037498e-13  0.
-1.8791118624985855e-17 3.3704588164361873e-13  0.
-5.320525031520345e-17 3.3698786632000175e-13  0.
-1.3641917265739615e-16 3.368333614132925e-13  0.
-3.193488696516495e-16 3.364587173468742e-13  0.
-6.871888735673672e-16 3.356251305084881e-13  0.
-1.3668365285017238e-15 3.339135485124962e-13  0.
-2.524927241367861e-15 3.3065380693449416e-13  0.
-4.3488611943832686e-15 3.2487126316482343e-13  0.
-7.007461792459811e-15 3.1528313142986623e-13  0.
-1.0592890588966727e-14 3.003781611562098e-13  0.
-1.5058175062845584e-14 2.786015118365408e-13  0.
-2.017273663792942e-14 2.4863948355679654e-13  0.
-2.5606197759161732e-14 2.0984658382239572e-13  0.
-3.3081068659080204e-14 1.64861790729071e-13  0.
-9.198330746919411e-14 1.699036640187052e-13  0.
0.0 3.481202628427605e-12  0.
-7.98791004195482e-20 3.481202599748761e-12  0.
-4.641367206763275e-19 3.4812022405330898e-12  0.
-2.4175443552398757e-18 3.481200235365102e-12  0.
-1.0751129907718158e-17 3.4811907671504923e-12  0.
-4.150690412257812e-17 3.4811520725931677e-12  0.
-1.4053178331228708e-16 3.4810143812414974e-12  0.
-4.228459985707714e-16 3.480580726195159e-12  0.
-1.1425722913231524e-15 3.4793586837749596e-12  0.
-2.798725554320535e-15 3.4762461123100668e-12  0.
-6.261591048620397e-15 3.4690222632475412e-12  0.
-1.2879536103934661e-14 3.453639571400808e-12  0.
-2.4486028565883533e-14 3.423412267317778e-12  0.
-4.3224730930869144e-14 3.3683349437235297e-12  0.
-7.111837591095874e-14 3.27489921080866e-12  0.
-1.0941362582159705e-13 3.126816156374394e-12  0.
-1.5781918736657163e-13 2.906934556774712e-12  0.
-2.1395074516102486e-13 2.6003630471608106e-12  0.
-2.7420560813521256e-13 2.1993574691154636e-12  0.
-3.574529391750029e-13 1.7321239835465153e-12  0.
-9.88623466839544e-13 1.7958444668467674e-12  0.
0.0 3.199526105337244e-11  0.
-3.0921402368702694e-19 3.19952608722163e-11  0.
-2.078066293063423e-18 3.199525939028392e-11  0.
-1.2002746324532043e-17 3.199525017634893e-11  0.
-5.890292776297074e-17 3.199520193182155e-11  0.
-2.478064721681021e-16 3.1994986158917655e-11  0.
-9.05493434605452e-16 3.199415259571882e-11  0.
-2.9094988845052835e-15 3.1991334624197345e-11  0.
-8.322566614418187e-15 3.198289001701629e-11  0.
-2.1405696819636344e-14 3.1960215611400565e-11  0.
-4.9947973674050603e-14 3.190514601554219e-11  0.
-1.064996440606118e-13 3.1783222061478e-11  0.
-2.088065473199956e-13 3.1535508446911526e-11  0.
-3.783771452452219e-13 3.1071112325381134e-11  0.
-6.365121027027507e-13 3.026400114979696e-11  0.
-9.976087628358245e-13 2.8958496605145084e-11  0.
-1.461275058039247e-12 2.6986786256903846e-11  0.
-2.0059972593593727e-12 2.4199251673273916e-11  0.
-2.5983688813158444e-12 2.0514624396659938e-11  0.
-3.4317944779596922e-12 1.6215104527970157e-11  0.
-9.358283170343972e-12 1.691209746419046e-11  0.
0.0 2.5773886982995887e-10  0.
-1.096281326184173e-18 2.5773886922280086e-10  0.
-8.148191800915795e-18 2.577388638639992e-10  0.
-5.1407915511916875e-17 2.5773882759303526e-10  0.
-2.7662544821322606e-16 2.577386187182294e-10  0.
-1.270889619625336e-15 2.5773759369825534e-10  0.
-5.024565820127501e-15 2.57733285104817e-10  0.
-1.7312713524358855e-14 2.5771758078944333e-10  0.
-5.2596738281919556e-14 2.5766734792657577e-10  0.
-1.4252096835063333e-13 2.57524632672988e-10  0.
-3.477113118785211e-13 2.5716082316113084e-10  0.
-7.702782109324881e-13 2.563212040083004e-10  0.
-1.5600649083710108e-12 2.5455387804149913e-10  0.
-2.906056910824827e-12 2.5113933083030155e-10  0.
-5.00330519165247e-12 2.450519610237936e-10  0.
-7.995299724886954e-12 2.3499299793665603e-10  0.
-1.1899931338052114e-11 2.1952905397783433e-10  0.
-1.6550368934964194e-11 1.9734882497860253e-10  0.
-2.1679534892407987e-11 1.6771659712009586e-10  0.
-2.9048591553366743e-11 1.3314635918462082e-10  0.
-7.784824732845173e-11 1.3986794916794476e-10  0.
0.0 1.8012748305475854e-09  0.
-3.496615004301789e-18 1.8012748287625491e-09  0.
-2.8025595269609547e-17 1.8012748118599092e-09  0.
-1.9171241910768888e-16 1.8012746879359235e-09  0.
-1.1222522429189035e-15 1.8012739108797254e-09  0.
-5.6085039026591756e-15 1.801269752629866e-09  0.
-2.4009677031197475e-14 1.8012507383534878e-09  0.
-8.881877830805015e-14 1.8011759510038674e-09  0.
-2.873127951470561e-13 1.80091995989444e-09  0.
-8.217897965627601e-13 1.8001486845521757e-09  0.
-2.1006716950347453e-12 1.7980802491127768e-09  0.
-4.84192482432494e-12 1.7930952222136517e-09  0.
-1.0143454757820375e-11 1.7822074243553777e-09  0.
-1.944005505113358e-11 1.7605044069324134e-09  0.
-3.4278615560228793e-11 1.7207821578558135e-09  0.
-5.587251691178067e-11 1.6536884114187116e-09  0.
-8.452433507793955e-11 1.548657538961175e-09  0.
-1.1912493201156463e-10 1.3957883411948471e-09  0.
-1.5788586849877753e-10 1.1894212377346126e-09  0.
-2.149334278923343e-10 9.493813570303002e-10  0.
-5.637152969636973e-10 1.0060692337754638e-09  0.
0.0 1.0792954709549082e-08  0.
-1.0027193521203123e-17 1.0792954704817475e-08  0.
-8.580447553857763e-17 1.079295465740958e-08  0.
-6.298858913815178e-16 1.0792954285368644e-08  0.
-3.975090911741776e-15 1.0792951771315336e-08  0.
-2.1463504632955344e-14 1.0792937221237509e-08  0.
-9.910767842776218e-14 1.0792865280081009e-08  0.
-3.933175249397353e-13 1.0792560460349589e-08  0.
-1.3543920695289368e-12 1.0791444835269926e-08  0.
-4.092214910655781e-12 1.0787878482411882e-08  0.
-1.0964881072041585e-11 1.0777811927684645e-08  0.
-2.631240214794402e-11 1.0752461355333713e-08  0.
-5.702872050681954e-11 1.0694991306569271e-08  0.
-1.1246687455838842e-10 1.0576777867864425e-08  0.
-2.0307732837976818e-10 1.0354666520117996e-08  0.
-3.375580288761506e-10 9.97126578428166e-09  0.
-5.188740396774868e-10 9.360313373143378e-09  0.
-7.408741934705108e-10 8.458384379982322e-09  0.
-9.938022238526007e-10 7.229311538706736e-09  0.
-1.3766355847106169e-09 5.810550844474616e-09  0.
-3.514326454483127e-09 6.224640054290765e-09  0.
0.0 5.467658104758332e-08  0.
-2.6092634698407024e-17 5.467658103624262e-08  0.
-2.361258514191034e-16 5.4676580917221795e-08  0.
-1.8437031251674584e-15 5.467657992500845e-08  0.
-1.2431475630619805e-14 5.4676572767756166e-08  0.
-7.193805988721768e-14 5.467652838040492e-08  0.
-3.561305432833289e-13 5.467629279029722e-08  0.
-1.510291145144172e-12 5.467522346244505e-08  0.
-5.523332219898887e-12 5.4671052590318315e-08  0.
-1.759734182979724e-11 5.465694290894353e-08  0.
-4.93626868297899e-11 5.461510068828512e-08  0.
-1.23167848868927e-10 5.45051825901647e-08  0.
-2.758625970723754e-10 5.424692691894105e-08  0.
-5.590802982989348e-10 5.369961586406401e-08  0.
-1.0324177990661168e-09 5.264562721507341e-08  0.
-1.747632596142276e-09 5.0789393227463004e-08  0.
-2.726018360299593e-09 4.778336781325945e-08  0.
-3.93913333493683e-09 4.3289824106199154e-08  0.
-5.347022547724994e-09 3.7123730868849606e-08  0.
-7.54818135579128e-09 3.0116221824666755e-08  0.
-1.8622415357535227e-08 3.270659137024452e-08  0.
0.0 2.303191373116005e-07  0.
-6.201384873412407e-17 2.3031913728697824e-07  0.
-5.890974254647273e-16 2.3031913701693876e-07  0.
-4.853646092345735e-15 2.303191346448523e-07  0.
-3.467704518776895e-14 2.3031911653647344e-07  0.
-2.133302640903066e-13 2.30318997221664e-07  0.
-1.1242442341809145e-12 2.303183229551059e-07  0.
-5.067167040206579e-12 2.3031506565520717e-07  0.
-1.9598386517374355e-11 2.3030159801921115e-07  0.
-6.558528421330758e-11 2.302536218214792e-07  0.
-1.919323665366171e-10 2.3010483677736988e-07  0.
-4.962319139041272e-10 2.2969893396478304e-07  0.
-1.1447403189815342e-09 2.2871480006973128e-07  0.
-2.3762890999175015e-09 2.2657506591404024e-07  0.
-4.47323917701784e-09 2.223691935987991e-07  0.
-7.686781665880864e-09 2.148425622279144e-07  0.
-1.2131197580507217e-08 2.0250425196624202e-07  0.
-1.7696872458504786e-08 1.8390128926889555e-07  0.
-2.428736774395539e-08 1.5833000216017284e-07  0.
-3.4984119059225304e-08 1.3012810947921803e-07  0.
-8.263027010859671e-08 1.4381777769983308e-07  0.
0.0 7.906513089826063e-07  0.
-1.3538424005229758e-16 7.906513089337569e-07  0.
-1.3414272163258968e-15 7.906513083770708e-07  0.
-1.1579943346634007e-14 7.906513032612928e-07  0.
-8.70096585900899e-14 7.906512622398326e-07  0.
-5.647309849812164e-13 7.906509773496298e-07  0.
-3.145488803780839e-12 7.906492762799086e-07  0.
-1.4974702416020325e-11 7.906405916821965e-07  0.
-6.094423252081698e-11 7.906027513096602e-07  0.
-2.132000523823593e-10 7.904615715617077e-07  0.
-6.473622751615119e-10 7.900067067938461e-07  0.
-1.7249128002256986e-09 7.887268580680423e-07  0.
-4.074202144738322e-09 7.855489196522339e-07  0.
-8.612808415382366e-09 7.785143030702728e-07  0.
-1.6429390607932645e-08 7.645116793444992e-07  0.
-2.849705481032567e-08 7.392469764236857e-07  0.
-4.5252896642102916e-08 6.976462727638453e-07  0.
-6.634172969397292e-08 6.348789842850572e-07  0.
-9.186257166163226e-08 5.493602484469517e-07  0.
-1.351022542993488e-07 4.6035162132319947e-07  0.
-3.0167439389366087e-07 5.204559757321414e-07  0.
0.0 2.159937044353306e-06  0.
-2.724589358655653e-16 2.1599370442646592e-06  0.
-2.800574030123907e-15 2.1599370432202066e-06  0.
-2.5172317868231414e-14 2.1599370332393497e-06  0.
-1.9758186886993147e-13 2.1599369497336283e-06  0.
-1.3435126892168145e-12 2.15993634274851e-06  0.
-7.854692317534067e-12 2.1599325407798016e-06  0.
-3.924912549441975e-11 2.159912165099814e-06  0.
-1.671749570014108e-10 2.1598191685883e-06  0.
-6.083153849071714e-10 2.159457780363333e-06  0.
-1.9056517061157454e-09 2.158255384032817e-06  0.
-5.196375496716702e-09 2.154794951017351e-06  0.
-1.247143546525839e-08 2.1460790881307108e-06  0.
-2.6619252112643655e-08 2.1266573604222e-06  0.
-5.1008133090916336e-08 2.087977800606083e-06  0.
-8.849494136451909e-08 2.0185201422236415e-06  0.
-1.401768300258144e-07 1.9051757765830945e-06  0.
-2.0495115073255402e-07 1.7365560085912386e-06  0.
-2.8529122395196537e-07 1.5136848019515437e-06  0.
-4.2795306757853983e-07 1.307825275024279e-06  0.
-8.883509857411553e-07 1.5223469638562673e-06  0.
0.0 4.586365635356257e-06  0.
-5.067036852321149e-16 4.586365635209286e-06  0.
-5.3757959113260604e-15 4.586365633427895e-06  0.
-5.0029151121534496e-14 4.5863656158198865e-06  0.
-4.0773295590576706e-13 4.586365463003556e-06  0.
-2.8860977873803273e-12 4.586364307695006e-06  0.
-1.7596554139250024e-11 4.586356765425227e-06  0.
-9.172541050483191e-11 4.5863146038548495e-06  0.
-4.0665771870209726e-10 4.586114197601602e-06  0.
-1.531684226634538e-09 4.585307210477437e-06  0.
-4.924089133679884e-09 4.582549873611323e-06  0.
-1.3646765345702203e-08 4.574491729658393e-06  0.
-3.2998892607127675e-08 4.554110582574357e-06  0.
-7.040558980667604e-08 4.508970613168003e-06  0.
-1.340120883053519e-07 4.420414315253263e-06  0.
-2.29774755055535e-07 4.264964124149707e-06  0.
-3.5861885030207246e-07 4.018738922169831e-06  0.
-5.172660982394143e-07 3.666894732174433e-06  0.
-7.197195359774572e-07 3.235949808366013e-06  0.
-1.0957831514011683e-06 2.9391457001715302e-06  0.
-2.0689487354846567e-06 3.5435412834472965e-06  0.
0.0 7.514578414053555e-06  0.
-8.730220663772181e-16 7.514578413831124e-06  0.
-9.516883067481515e-15 7.514578411067864e-06  0.
-9.12422222471066e-14 7.514578382950965e-06  0.
-7.67902680893704e-13 7.5145781311451e-06  0.
-5.625453183842492e-12 7.514576162280238e-06  0.
-3.555558382313255e-11 7.5145628443550655e-06  0.
-1.922209118185657e-10 7.51448564336649e-06  0.
-8.823418740241672e-10 7.514105550006507e-06  0.
-3.4240632103778676e-09 7.512527147524596e-06  0.
-1.1244038169952931e-08 7.5070136210799985e-06  0.
-3.147994962697396e-08 7.490751215972604e-06  0.
-7.606748336405838e-08 7.449821649727585e-06  0.
-1.6066646641629828e-07 7.360773933401816e-06  0.
-3.0013668911831694e-07 7.19141811770331e-06  0.
-5.020073372427855e-07 6.906561910852725e-06  0.
-7.61037274917316e-07 6.480218444755572e-06  0.
-1.0697208218688482e-06 5.919462669105796e-06  0.
-1.4770022381796998e-06 5.347002761838315e-06  0.
-2.2528151773904307e-06 5.2570791852365e-06  0.
-3.7750557406643017e-06 6.5495504814547646e-06  0.
0.0 9.943926510476868e-06  0.
-1.4000189847432749e-15 9.943926510167808e-06  0.
-1.5617683216863812e-14 9.943926506247e-06  0.
-1.5356459327428919e-13 9.943926465360002e-06  0.
-1.3281407100459315e-12 9.943926089329563e-06  0.
-1.0017343490196969e-11 9.943923064187182e-06  0.
-6.528171293701545e-11 9.943901976348526e-06  0.
-3.640779118766929e-10 9.9437758996349e-06  0.
-1.7218030164414142e-09 9.943136203060049e-06  0.
-6.854989899852923e-09 9.940408554051795e-06  0.
-2.2905663258353177e-08 9.9307036916511e-06  0.
-6.447793911205842e-08 9.9019339652149e-06  0.
-1.5460274796928998e-07 9.830399189901948e-06  0.
-3.2038156482307396e-07 9.67922469406454e-06  0.
-5.815150654882141e-07 9.404074183083242e-06  0.
-9.376800033959474e-07 8.968631534498151e-06  0.
-1.3660879972457578e-06 8.368608308212113e-06  0.
-1.8559444308099976e-06 7.686224745899463e-06  0.
-2.532774485939594e-06 7.255411808340247e-06  0.
-3.7726914860482975e-06 7.898289014629946e-06  0.
-5.5270121223600884e-06 9.890530570042831e-06  0.
0.0 1.2017528042372792e-05  0.
-2.099149331890546e-15 1.2017528041977675e-05  0.
-2.3876249354914922e-14 1.2017528036875987e-05  0.
-2.3981242169120667e-13 1.2017527982571538e-05  0.
-2.1221640967914935e-12 1.2017527471938256e-05  0.
-1.6403162043906614e-11 1.2017523265003628e-05  0.
-1.0968705506982357e-10 1.2017493191474578e-05  0.
-6.280209892872704e-10 1.2017308667689417e-05  0.
-3.046292585891426e-09 1.2016348299837788e-05  0.
-1.2395904369835696e-08 1.2012160068249348e-05  0.
-4.202126465441817e-08 1.1997025931977252e-05  0.
-1.1856217587075923e-07 1.195204868279449e-05  0.
-2.8067812381482014e-07 1.1842063189930496e-05  0.
-5.664667924281936e-07 1.1618298885393905e-05  0.
-9.915483975567377e-07 1.1233271624660422e-05  0.
-1.5308070899761746e-06 1.0667731403293936e-05  0.
-2.1396648176062445e-06 9.966598729720205e-06  0.
-2.8283840740263486e-06 9.337768114223147e-06  0.
-3.835289271821345e-06 9.379022223734877e-06  0.
-5.415120443155257e-06 1.0900322061629804e-05  0.
-7.047932343180014e-06 1.295075180248024e-05  0.
0.0 1.4534343413817877e-05  0.
-2.947897042300503e-15 1.4534343413357906e-05  0.
-3.407312137355706e-14 1.4534343407331609e-05  0.
-3.4828779942178093e-13 1.4534343342081957e-05  0.
-3.140935752688487e-12 1.4534342717125636e-05  0.
-2.4773609580502127e-11 1.4534337465681688e-05  0.
-1.69225172452566e-10 1.453429913323652e-05  0.
-9.90265436973632e-10 1.453405880536669e-05  0.
-4.906050972397237e-09 1.4532781124494076e-05  0.
-2.0333061816024117e-08 1.4527102285427342e-05  0.
-6.975671046304586e-08 1.4506310764843956e-05  0.
-1.9693341932003583e-07 1.4444438533648266e-05  0.
-4.5908686003631665e-07 1.429590042065454e-05  0.
-8.979148148498721e-07 1.4006751144858814e-05  0.
-1.5091164107087475e-06 1.3541169723337514e-05  0.
-2.23319938096993e-06 1.2911938613608526e-05  0.
-3.0215662602614448e-06 1.2233092009148824e-05  0.
-3.984144877699545e-06 1.1847409973726839e-05  0.
-5.3971948356009984e-06 1.2473084408648076e-05  0.
-7.149688422922033e-06 1.4194263719141815e-05  0.
-8.60490013327146e-06 1.543862312248185e-05  0.
0.0 1.697558427667352e-05  0.
-3.882038747681616e-15 1.6975584276191657e-05  0.
-4.545189530617948e-14 1.697558426980391e-05  0.
-4.711721331962696e-13 1.6975584199687235e-05  0.
-4.313924100238582e-12 1.697558351811893e-05  0.
-3.458032149935212e-11 1.697557769958705e-05  0.
-2.402760969038098e-10 1.6975534509492547e-05  0.
-1.430858903780455e-09 1.6975258985118774e-05  0.
-7.2107542346896895e-09 1.6973768779399348e-05  0.
-3.0332645197917825e-08 1.696704191895013e-05  0.
-1.0507127667640226e-07 1.6942144878569412e-05  0.
-2.965352273880491e-07 1.686798880064027e-05  0.
-6.803839998672592e-07 1.6693078740192515e-05  0.
-1.28714481368568e-06 1.636794855998966e-05  0.
-2.0751468248635313e-06 1.58821870205467e-05  0.
-2.9707891515500612e-06 1.5282759234330323e-05  0.
-3.9663454387196395e-06 1.4741309013282608e-05  0.
-5.2998232948527145e-06 1.4718902163595469e-05  0.
-7.07992246617989e-06 1.5722267745806432e-05  0.
-8.816873776102362e-06 1.6888047967570076e-05  0.
-1.0089752861986887e-05 1.7379064993562884e-05  0.
0.0 1.9243024192091034e-05  0.
-4.803035063402455e-15 1.9243024191644858e-05  0.
-5.6792302491247786e-14 1.9243024185677402e-05  0.
-5.950947320817627e-13 1.9243024119493917e-05  0.
-5.511961415645642e-12 1.924302346894383e-05  0.
-4.473391740182223e-11 1.9243017848394717e-05  0.
-3.1491015514000587e-10 1.9242975595779157e-05  0.
-1.9006403639191413e-09 1.9242702483091804e-05  0.
-9.704671404019447e-09 1.924120588485919e-05  0.
-4.1296090751014355e-08 1.9234369566245576e-05  0.
-1.4412316552106938e-07 1.9208853443152242e-05  0.
-4.0649825128895915e-07 1.9132805023592085e-05  0.
-9.194186479388523e-07 1.895610907385642e-05  0.
-1.6855036953877183e-06 1.8641452570863472e-05  0.
-2.613834905216282e-06 1.820745308935486e-05  0.
-3.667846787468054e-06 1.7726481891680225e-05  0.
-4.9252896811902345e-06 1.7387899192743506e-05  0.
-6.5576880975480306e-06 1.7667719811284517e-05  0.
-8.406637908062736e-06 1.8601410958375627e-05  0.
-9.815109703140652e-06 1.915902904237295e-05  0.
-1.105712151738012e-05 1.974827915514794e-05  0.
0.0 2.1718187010328272e-05  0.
-5.587917429444397e-15 2.1718187009983336e-05  0.
-6.653455336653949e-14 2.171818700534007e-05  0.
-7.024875134881717e-13 2.171818695345772e-05  0.
-6.5600173525570066e-12 2.171818643937165e-05  0.
-5.370652335026812e-11 2.1718181959523388e-05  0.
-3.8157309766558114e-10 2.1718147974232088e-05  0.
-2.3249329532410862e-09 2.171792621610543e-05  0.
-1.1982054164968868e-08 2.1716699532540733e-05  0.
-5.140722722416385e-08 2.1711047690792226e-05  0.
-1.8038004176916451e-07 2.1689820373579197e-05  0.
-5.0850359665201e-07 2.1626502148401086e-05  0.
-1.1374553133167614e-06 2.148097560383948e-05  0.
-2.032740256287231e-06 2.123063883567996e-05  0.
-3.0540430434789796e-06 2.0910345006205917e-05  0.
-4.2436223013222255e-06 2.059940559452921e-05  0.
-5.756408420723461e-06 2.0456933203767007e-05  0.
-7.439904064707653e-06 2.079027938121482e-05  0.
-9.04563697578802e-06 2.137042486694528e-05  0.
-1.023389432582131e-05 2.1615213634678523e-05  0.
-1.159690316472257e-05 2.2286239025977786e-05  0.
0.0 2.4051562999992127e-05  0.
-6.117268704809779e-15 2.4051562999803516e-05  0.
-7.314042593520981e-14 2.405156299725489e-05  0.
-7.757290677159496e-13 2.4051562968654334e-05  0.
-7.279253189898806e-12 2.4051562683938198e-05  0.
-5.990524577086214e-11 2.4051560190435906e-05  0.
-4.27953911487233e-10 2.405154117353511e-05  0.
-2.6223074512441514e-09 2.405141639874814e-05  0.
-1.358987686457976e-08 2.4050722369652317e-05  0.
-5.859270910490595e-08 2.40475084054376e-05  0.
-2.0626182062264212e-07 2.4035391923114892e-05  0.
-5.812886242602919e-07 2.3999229506743845e-05  0.
-1.2912958098817555e-06 2.3916649620698498e-05  0.
-2.269980637538902e-06 2.377767851387686e-05  0.
-3.340071983972016e-06 2.3609772391883275e-05  0.
-4.6163411428117105e-06 2.3467642181876084e-05  0.
-6.288320510968002e-06 2.3434649524479557e-05  0.
-7.889165947167952e-06 2.361498471973807e-05  0.
-9.244300317209628e-06 2.38958936300376e-05  0.
-1.0636173754388903e-05 2.4003980398889168e-05  0.
-1.183269405643601e-05 2.4192490944002514e-05  0.
0.0 2.644999999999994e-05  0.
-6.304427241080434e-15 2.644999999999994e-05  0.
-7.548180914849411e-14 2.644999999999994e-05  0.
-8.017622409712153e-13 2.644999999999994e-05  0.
-7.53568015947796e-12 2.644999999999994e-05  0.
-6.212250453294753e-11 2.644999999999994e-05  0.
-4.4460189631857393e-10 2.644999999999994e-05  0.
-2.7294346863079668e-09 2.644999999999994e-05  0.
-1.4171180259161112e-08 2.644999999999994e-05  0.
-6.119915755892835e-08 2.644999999999994e-05  0.
-2.1567195333636498e-07 2.644999999999994e-05  0.
-6.07750844657382e-07 2.644999999999994e-05  0.
-1.3469354446954515e-06 2.644999999999994e-05  0.
-2.3544457161132365e-06 2.644999999999994e-05  0.
-3.439023446907834e-06 2.644999999999994e-05  0.
-4.742955146850699e-06 2.644999999999994e-05  0.
-6.46339367086715e-06 2.644999999999994e-05  0.
-8.026569650831118e-06 2.644999999999994e-05  0.
-9.299238590637366e-06 2.644999999999994e-05  0.
-1.0860205133398147e-05 2.644999999999994e-05  0.
-1.1855503272555053e-05 2.644999999999994e-05  0.
</DataArray>
<DataArray type="Float64" Name="sigma_xx" NumberOfComponents="1" format="ascii" >
1.5661567154268137 
1.5661565710978205 
1.5661548058432113 
1.5661485774920432 
1.5661265284627741 
1.5660555074958888 
1.5658512042548973 
1.565318374918689 
1.5640460593324685 
1.5612441117696103 
1.5555210786111213 
1.5446271151020592 
1.5252250240571636 
1.4927786340379607 
1.4416813520767842 
1.3657118769216932 
1.2588488917941727 
1.1162287205657146 
0.9321615479507269 
0.6318447764996902 
0.4348388316088857 
9.586639293512885 
9.586638488601192 
9.586633314961897 
9.586610361100863 
9.586521565463354 
9.58621907964918 
9.58529963179799 
9.582779236794178 
9.576490100915432 
9.562099578808155 
9.531709455057321 
9.472158385426251 
9.363381819893487 
9.177451221198393 
8.87907150026734 
8.428256553782983 
7.785451872077683 
6.918003458977749 
5.791352364337142 
4.025872124557848 
2.8937144347374026 
88.6429257440646 
88.64292170285279 
88.6428957180829 
88.64276887510233 
88.64223751681163 
88.64029652499991 
88.63402540248974 
88.61590162778651 
88.5685862039853 
88.4560280467461 
88.21028363303893 
87.71480856650801 
86.78746865609097 
85.16915191991711 
82.52604937197813 
78.47311980779811 
72.6224165303879 
64.64539334394279 
54.1838654999349 
37.67155531686493 
27.06530865537181 
711.9216077655642 
711.9215918338638 
711.9214782524972 
711.9208758732395 
711.9181428150155 
711.9074098949072 
711.8704625830305 
711.7576960591341 
711.4491511805985 
710.6852095539738 
708.9593974884955 
705.3775361143265 
698.5069428866451 
686.2659319900597 
665.9219776522505 
634.2694923971991 
588.0220248000165 
524.3242537533719 
439.8967735047553 
304.96867682583405 
217.94303849964604 
4953.9895900618785 
4953.989533507118 
4953.989100392462 
4953.986615219284 
4953.974430021988 
4953.922994005431 
4953.734259099949 
4953.1252105106105 
4951.377418815904 
4946.870403432778 
4936.333291380433 
4913.822202931571 
4869.585008596132 
4789.161997831302 
4653.246622729477 
4438.836980530379 
4121.985170202346 
3681.3578491418075 
3090.901180899385 
2134.675202630775 
1515.2554251440788 
29498.837349950503 
29498.83716983902 
29498.83570759758 
29498.826705026673 
29498.779272296702 
29498.56478028922 
29497.72698246366 
29494.871395524526 
29486.28209685776 
29463.23616369871 
29407.534937209144 
29285.218936578312 
29039.353371662626 
28584.062577360895 
27803.052949437737 
26556.11902396548 
24695.500414745322 
22086.40059440935 
18551.41242725344 
12746.060594226443 
8968.602212838789 
148056.47580954366 
148056.4752939894 
148056.4708837894 
148056.44196090312 
148056.27931423477 
148055.49533373202 
148052.24677014723 
148040.58354209166 
148003.9087510681 
147901.79666720465 
147647.40860999931 
147075.04632779083 
145902.30078007356 
143698.22960069164 
139874.62413655166 
133718.4339788022 
124473.90922165898 
111436.06213122323 
93584.12287039371 
63841.43688621943 
44400.98495991916 
614765.0839596228 
614765.0826214099 
614765.0706259053 
614764.9874327029 
614764.4915682591 
614761.9588135974 
614750.8752568474 
614709.1201251063 
614572.4337110857 
614179.2603010896 
613174.7380171829 
610871.6025722575 
606089.945851154 
597026.222158714 
581227.7519427892 
555741.0922645943 
517457.26907571877 
463416.0754730136 
388736.682796889 
262534.5200108763 
179696.24189543835 
2061694.7402840252 
2061694.7371106972 
2061694.707465405 
2061694.4915030235 
2061693.1362556708 
2061685.845332039 
2061652.3207585053 
2061520.367290039 
2061072.7565616514 
2059750.2744044643 
2056308.0292669698 
2048329.0932963798 
2031690.4027032782 
2000191.976335124 
1945600.2472425369 
1858309.7565598774 
1728523.030306963 
1546728.8707967785 
1293892.3963449334 
861108.8140219848 
576079.6592049641 
5409059.101643318 
5409059.094734307 
5409059.027804357 
5409058.518795699 
5409055.176799059 
5409036.352791908 
5408945.882210593 
5408575.5176448515 
5407279.5988092795 
5403369.94654028 
5393082.642193643 
5369203.936186232 
5319769.8708898015 
5227568.577139755 
5071146.045939843 
4827471.831457844 
4475181.930863513 
3992820.47154393 
3320984.372864565 
2160741.8367922115 
1395743.9688614171 
10649735.1081928 
10649735.09433543 
10649734.955782311 
10649733.86192088 
10649726.391415127 
10649682.58741625 
10649463.685527094 
10648535.881006809 
10645201.75905054 
10634987.252784444 
10608029.321750626 
10546011.640055666 
10420268.816225436 
10193100.824298635 
9823769.562808055 
9277394.336001636 
8531199.418288903 
7557675.7970430255 
6210389.359196667 
3887999.7288296903 
2364412.359102617 
15033489.389555927 
15033489.363875259 
15033489.09997942 
15033486.948152492 
15033471.743122298 
15033379.423024384 
15032902.109661764 
15030816.689450014 
15023150.41198098 
14999410.525884945 
14937015.306376444 
14796230.929060258 
14520542.39090114 
14047363.327287316 
13328668.933204059 
12353540.40473501 
11149166.487239879 
9711899.426216085 
7754380.49228899 
4492983.80183959 
2406138.3399848286 
15041703.694915004 
15041703.650757043 
15041703.186132388 
15041699.290790927 
15041670.946838638 
15041493.591811793 
15040549.176803995 
15036312.442588262 
15020431.667724457 
14970892.295137163 
14841942.294862933 
14559302.949424662 
14032157.228407595 
13189515.376644809 
12028017.399118032 
10642509.177306205 
9184503.248921942 
7669098.019945566 
5629667.5841759425 
2649581.967721557 
921228.3633691171 
12636823.29940607 
12636823.228631001 
12636822.46868908 
12636815.944124525 
12636767.261636335 
12636454.665911056 
12634747.17112281 
12626909.346210638 
12597032.445457123 
12503352.94762155 
12262726.237407556 
11754501.760538695 
10864230.113415014 
9565798.212649303 
7995567.206084743 
6429943.896587506 
5120910.836864551 
3909857.6228956855 
2153200.434470096 
353163.4101274193 
-333589.5791059331 
12882943.019118104 
12882942.913075218 
12882941.754742417 
12882931.608018063 
12882854.275492681 
12882346.725727197 
12879513.660600754 
12866251.354972016 
12814965.320545498 
12653577.734627476 
12245342.80676738 
11419780.693112466 
10081382.83887842 
8341505.533471826 
6566401.436231367 
5182943.187795213 
4275259.48564694 
3214947.76644439 
1371852.3521787738 
51327.404771231435 
-126861.03725637309 
13916980.671420328 
13916980.5226179 
13916978.87395202 
13916964.190306325 
13916850.29949308 
13916089.140487308 
13911763.39925346 
13891179.09630586 
13810618.503820036 
13556487.75697467 
12923820.61291149 
11703601.632636452 
9899819.12162707 
7868984.887035854 
6189532.724754581 
5217808.106742311 
4465217.841686111 
2957570.029974704 
777837.9270594772 
-397493.89364200627 
-445516.34165621817 
13215388.77286284 
13215388.57695276 
13215386.381411694 
13215366.564733082 
13215210.679868676 
13214153.573356614 
13208058.231210437 
13178665.896257188 
13062507.417066755 
12695454.402868807 
11795280.46423836 
10139849.373344986 
7935078.656064817 
5860940.330009412 
4499786.838144055 
3775978.2204962233 
2632904.8371759565 
421230.84160237433 
-1265624.1043361598 
-1102774.532866043 
-584061.0810412174 
13310837.206119448 
13310836.963798247 
13310834.22421217 
13310809.243123889 
13310610.599137045 
13309248.380593928 
13301305.697804078 
13262611.020914307 
13108529.61886388 
12621052.869141694 
11440807.096827963 
9362798.35825904 
6880900.35717625 
5011934.0894848015 
3997703.913694323 
3041303.425689795 
1349420.7895197396 
-832744.908541655 
-1125259.6969811623 
-51162.50371438553 
232831.4708713006 
13496307.613595854 
13496307.331729269 
13496304.12524247 
13496274.674912103 
13496038.698730607 
13494407.628507005 
13484822.002679078 
13437782.518561853 
13249460.545641163 
12653170.000056192 
11223526.370087901 
8793242.243103385 
6167078.553626026 
4643447.9136378905 
3857449.6641513715 
2255342.360512 
403797.7768677478 
-575671.0003308882 
-36837.27809169455 
209916.01854157058 
-371149.1530044427 
13280428.31078184 
13280428.002233664 
13280424.479228614 
13280391.98241628 
13280130.409530109 
13278313.87750607 
13267587.935257658 
13214723.296430636 
13002395.549187828 
12329773.341177555 
10726912.843721632 
8063586.401746895 
5386412.863002618 
4174719.834178672 
3482499.3451142283 
1223842.8649744338 