<?xml version="1.0"?>
<VTKFile type="UnstructuredGrid" version="0.1" byte_order="LittleEndian" compressor="vtkZLibDataCompressor">
<UnstructuredGrid>
<Piece NumberOfPoints="441" NumberOfCells="400">
<PointData>
<DataArray type="Float64" Name="displacement" NumberOfComponents="3" format="ascii" >
0.0 0.0  0.
0.0 0.0  0.
0.0 0.0  0.
0.0 0.0  0.
0.0 0.0  0.
0.0 0.0  0.
0.0 0.0  0.
0.0 0.0  0.
0.0 0.0  0.
0.0 0.0  0.
0.0 0.0  0.
0.0 0.0  0.
0.0 0.0  0.
0.0 0.0  0.
0.0 0.0  0.
0.0 0.0  0.
0.0 0.0  0.
0.0 0.0  0.
0.0 0.0  0.
0.0 0.0  0.
0.0 0.0  0.
0.0 0.0  0.
0.0 0.0  0.
0.0 0.0  0.
0.0 0.0  0.
0.0 0.0  0.
0.0 0.0  0.
0.0 0.0  0.
0.0 0.0  0.
0.0 0.0  0.
0.0 0.0  0.
0.0 0.0  0.
0.0 0.0  0.
0.0 0.0  0.
0.0 0.0  0.
0.0 0.0  0.
0.0 0.0  0.
0.0 0.0  0.
0.0 0.0  0.
0.0 0.0  0.
0.0 0.0  0.
0.0 0.0  0.
0.0 0.0  0.
0.0 0.0  0.
0.0 0.0  0.
0.0 0.0  0.
0.0 0.0  0.
0.0 0.0  0.
0.0 0.0  0.
0.0 0.0  0.
0.0 0.0  0.
0.0 0.0  0.
0.0 0.0  0.
0.0 0.0  0.
0.0 0.0  0.
0.0 0.0  0.
0.0 0.0  0.
0.0 0.0  0.
0.0 0.0  0.
0.0 0.0  0.
0.0 0.0  0.
0.0 0.0  0.
0.0 0.0  0.
0.0 0.0  0.
0.0 0.0  0.
0.0 0.0  0.
0.0 0.0  0.
0.0 0.0  0.
0.0 0.0  0.
0.0 0.0  0.
0.0 0.0  0.
0.0 0.0  0.
0.0 0.0  0.
0.0 0.0  0.
0.0 0.0  0.
0.0 0.0  0.
0.0 0.0  0.
0.0 0.0  0.
0.0 0.0  0.
0.0 0.0  0.
0.0 0.0  0.
0.0 0.0  0.
0.0 0.0  0.
0.0 0.0  0.
0.0 0.0  0.
0.0 0.0  0.
0.0 0.0  0.
0.0 0.0  0.
0.0 0.0  0.
0.0 0.0  0.
0.0 0.0  0.
0.0 0.0  0.
0.0 0.0  0.
0.0 0.0  0.
0.0 0.0  0.
0.0 0.0  0.
0.0 0.0  0.
0.0 0.0  0.
0.0 0.0  0.
0.0 0.0  0.
0.0 0.0  0.
0.0 0.0  0.
0.0 0.0  0.
0.0 0.0  0.
0.0 0.0  0.
0.0 0.0  0.
0.0 0.0  0.
0.0 0.0  0.
0.0 0.0  0.
0.0 0.0  0.
0.0 0.0  0.
0.0 0.0  0.
0.0 0.0  0.
0.0 0.0  0.
0.0 0.0  0.
0.0 0.0  0.
0.0 0.0  0.
0.0 0.0  0.
0.0 0.0  0.
0.0 0.0  0.
0.0 0.0  0.
0.0 0.0  0.
0.0 0.0  0.
0.0 0.0  0.
0.0 0.0  0.
0.0 0.0  0.
0.0 0.0  0.
0.0 0.0  0.
0.0 0.0  0.
0.0 0.0  0.
0.0 0.0  0.
0.0 0.0  0.
0.0 0.0  0.
0.0 0.0  0.
0.0 0.0  0.
0.0 0.0  0.
0.0 0.0  0.
0.0 0.0  0.
0.0 0.0  0.
0.0 0.0  0.
0.0 0.0  0.
0.0 0.0  0.
0.0 0.0  0.
0.0 0.0  0.
0.0 0.0  0.
0.0 0.0  0.
0.0 0.0  0.
0.0 0.0  0.
0.0 0.0  0.
0.0 0.0  0.
0.0 0.0  0.
0.0 0.0  0.
0.0 0.0  0.
0.0 0.0  0.
0.0 0.0  0.
0.0 0.0  0.
0.0 0.0  0.
0.0 0.0  0.
0.0 0.0  0.
0.0 0.0  0.
0.0 0.0  0.
0.0 0.0  0.
0.0 0.0  0.
0.0 0.0  0.
0.0 0.0  0.
0.0 0.0  0.
0.0 0.0  0.
0.0 0.0  0.
0.0 0.0  0.
0.0 0.0  0.
0.0 0.0  0.
0.0 0.0  0.
0.0 0.0  0.
0.0 0.0  0.
0.0 0.0  0.
0.0 0.0  0.
0.0 0.0  0.
0.0 0.0  0.
0.0 0.0  0.
0.0 0.0  0.
0.0 0.0  0.
0.0 0.0  0.
0.0 0.0  0.
0.0 0.0  0.
0.0 0.0  0.
0.0 0.0  0.
0.0 0.0  0.
0.0 0.0  0.
0.0 0.0  0.
0.0 0.0  0.
0.0 0.0  0.
0.0 0.0  0.
0.0 0.0  0.
0.0 0.0  0.
0.0 0.0  0.
0.0 0.0  0.
0.0 0.0  0.
0.0 0.0  0.
0.0 0.0  0.
0.0 0.0  0.
0.0 0.0  0.
0.0 0.0  0.
0.0 0.0  0.
0.0 0.0  0.
0.0 0.0  0.
0.0 0.0  0.
0.0 0.0  0.
0.0 0.0  0.
0.0 0.0  0.
0.0 0.0  0.
0.0 0.0  0.
0.0 0.0  0.
0.0 0.0  0.
0.0 0.0  0.
0.0 0.0  0.
0.0 0.0  0.
0.0 0.0  0.
0.0 0.0  0.
0.0 0.0  0.
0.0 0.0  0.
0.0 0.0  0.
0.0 0.0  0.
0.0 0.0  0.
0.0 0.0  0.
0.0 0.0  0.
0.0 0.0  0.
0.0 0.0  0.
0.0 0.0  0.
0.0 0.0  0.
0.0 0.0  0.
0.0 0.0  0.
0.0 0.0  0.
0.0 0.0  0.
0.0 0.0  0.
0.0 0.0  0.
0.0 0.0  0.
0.0 0.0  0.
0.0 0.0  0.
0.0 0.0  0.
0.0 0.0  0.
0.0 0.0  0.
0.0 0.0  0.
0.0 0.0  0.
0.0 0.0  0.
0.0 0.0  0.
0.0 0.0  0.
0.0 0.0  0.
0.0 0.0  0.
0.0 0.0  0.
0.0 0.0  0.
0.0 0.0  0.
0.0 0.0  0.
0.0 3.823025556430892e-49  0.
4.1586759402041795e-49 1.3115651528047853e-49  0.
1.360562194436531e-48 6.539197532626355e-49  0.
2.2189066162904317e-48 2.8110211418190526e-49  0.
2.598954449597248e-48 7.452764182481311e-50  0.
2.5137640678733513e-48 -1.4183343294854276e-49  0.
2.610776616892002e-48 2.3066296503970437e-49  0.
2.450128497870666e-48 -4.0450945720872105e-49  0.
2.2124221948104007e-48 2.0342877816954555e-49  0.
2.2055491533882208e-48 -2.648116079475319e-49  0.
2.515933558038454e-48 6.35843383348276e-49  0.
3.0076650609303836e-48 -1.7480192375708786e-49  0.
3.31072172937587e-48 4.579375186439937e-49  0.
-1.2887732393523517e-36 -1.2888056128176826e-36  0.
-7.688632977075817e-36 -5.118993173496593e-36  0.
-2.862547943157396e-35 -1.5779870321402574e-35  0.
-1.3322533976500143e-34 -8.873529378396264e-35  0.
-5.1542524952402305e-34 -2.960687243896819e-34  0.
-9.211874782046798e-34 -6.703997260952681e-35  0.
-6.339679779953267e-34 1.4041406416200649e-34  0.
-3.966947590873948e-34 6.67235191457758e-34  0.
0.0 3.4040431201440033e-34  0.
2.1062516808177963e-34 -1.4041677866578736e-34  0.
1.5318194050516142e-34 1.0212129361849822e-34  0.
1.3403419795874659e-34 -1.3190667090680586e-34  0.
1.0630972757553044e-43 -1.1089906738388076e-45  0.
1.16126459190379e-43 1.0443227664910656e-44  0.
9.75075732317566e-44 -2.7649018107209433e-44  0.
7.754763185231442e-44 1.0613953956883364e-44  0.
8.684195601159817e-44 -4.256660094779423e-45  0.
8.815241585417293e-44 2.2608968453399935e-45  0.
7.741194016531411e-44 -6.004058538620291e-45  0.
1.1180158351941373e-43 3.910268013860292e-44  0.
1.2281295754960539e-43 -3.522396910790895e-44  0.
-6.503212604804533e-36 -9.07232840803118e-36  0.
-1.2874557810376227e-31 -1.287350613453656e-31  0.
-1.0520770653193854e-30 -7.937554651753804e-31  0.
-3.697032162049796e-30 -1.8960588707960902e-30  0.
-1.562535720408577e-29 -1.0082676805879549e-29  0.
-4.6191498288331693e-29 -1.9646937054332236e-29  0.
-5.0330273865259613e-29 8.443190187206301e-31  0.
-4.7002928936524625e-29 6.340770662227254e-29  0.
0.0 -2.656779083185188e-30  0.
5.3151963685951896e-30 7.086366830792327e-30  0.
5.314851732515843e-30 -5.7578070716398715e-30  0.
-1.1484919846976714e-34 -1.7019288835734724e-34  0.
2.412834536368834e-38 -2.219758595024756e-38  0.
1.8743352664430857e-39 -1.1214360401488991e-40  0.
1.5989730148067087e-39 -1.431784604998241e-40  0.
8.383006067255886e-40 -2.963059376091642e-40  0.
1.5953703490520616e-39 6.8348084470517696e-40  0.
2.170330679855865e-39 -2.888889180772658e-40  0.
1.0754596548201758e-39 -3.475170895975195e-40  0.
1.505942195702005e-39 5.724714703310178e-40  0.
3.134890505895074e-39 7.104334988946283e-40  0.
-1.8319989287819967e-35 -3.392885729594024e-35  0.
-9.300425038040062e-31 -1.1948033840746936e-30  0.
-2.0669057369558263e-26 -1.9069519526796577e-26  0.
-1.0736761817282278e-25 -5.782737893016416e-26  0.
-3.100290557853683e-25 -1.104035227217656e-25  0.
-7.226518285543071e-25 -2.6407924211281585e-25  0.
-1.3683843763545493e-24 -5.482799779906967e-25  0.
-2.3781397389956526e-24 1.9993216722390943e-24  0.
0.0 7.432347262281303e-20  0.
7.903336427122102e-26 7.432331457494165e-20  0.
-4.553792796675094e-30 7.432336725176585e-20  0.
1.1086305537485918e-33 7.432336725524411e-20  0.
4.518213429911496e-37 7.432336725524517e-20  0.
2.0853292753437674e-37 7.432336725524517e-20  0.
4.170658550687535e-37 7.432336725524517e-20  0.
-1.3207085410510527e-36 7.432336725524517e-20  0.
-4.518213429911498e-37 7.432336725524517e-20  0.
3.371282328472424e-36 7.432336725524517e-20  0.
-3.371282328472424e-36 7.432336725524517e-20  0.
3.371282328472424e-36 7.432336725524515e-20  0.
2.2243512270333518e-36 7.432336725524517e-20  0.
-8.073699844372621e-35 7.432336725524507e-20  0.
-6.729844912985989e-30 7.432336724648755e-20  0.
-6.691331765979363e-26 7.432324545307648e-20  0.
-4.881572719893874e-22 7.374005880558908e-20  0.
-1.5528589033515158e-21 7.179861365178563e-20  0.
-3.708196074760614e-21 6.645767561307585e-20  0.
-7.199518627784645e-21 5.6645792627228e-20  0.
-2.950701049568878e-20 5.854187184551606e-20  0.
0.0 9.285054886532986e-17  0.
-1.3547611102741207e-25 9.285094063747154e-17  0.
1.0623666062302079e-29 9.285094075791374e-17  0.
6.690848490916317e-33 9.285094075793356e-17  0.
8.323522291558796e-33 9.285094075793356e-17  0.
9.133186138198932e-33 9.285094075793356e-17  0.
8.990827659668802e-33 9.285094075793356e-17  0.
8.870712693409e-33 9.285094075793356e-17  0.
3.558961963253362e-33 9.285094075793356e-17  0.
1.5276844227265045e-32 9.285094075793356e-17  0.
-1.423584785301344e-34 9.285094075793356e-17  0.
7.99431830995786e-33 9.285094075793356e-17  0.
7.851959831427726e-33 9.285094075793356e-17  0.
1.4729653825414844e-32 9.285094075793362e-17  0.
-1.038562044268743e-29 9.285094075790837e-17  0.
-2.15926468939624e-25 9.285094031854292e-17  0.
-2.8102633062195242e-21 9.284904092967339e-17  0.
-1.574746930699343e-18 9.127579584386133e-17  0.
-3.866601497974183e-18 8.58574700487279e-17  0.
-9.32079672763986e-18 7.356621659259228e-17  0.
-3.830136219048686e-17 7.688847160224303e-17  0.
0.0 6.818016410882735e-14  0.
8.462128713085411e-26 6.818016349321629e-14  0.
2.1009833695391387e-29 6.818016349301668e-14  0.
2.05998412772246e-29 6.818016349301669e-14  0.
2.1779708347282355e-29 6.818016349301669e-14  0.
2.494576090979255e-29 6.818016349301669e-14  0.
2.4389993409610905e-29 6.818016349301669e-14  0.
2.1884484187480534e-29 6.818016349301669e-14  0.
2.0613507691163495e-29 6.818016349301668e-14  0.
2.1989260027678714e-29 6.818016349301669e-14  0.
2.5023203922112943e-29 6.818016349301669e-14  0.
1.943364062110574e-29 6.818016349301668e-14  0.
2.611196156591141e-29 6.818016349301668e-14  0.
2.534208691402045e-29 6.818016349301673e-14  0.
1.0555027032138303e-29 6.818016349301663e-14  0.
-2.6288105820431886e-23 6.818016341553329e-14  0.
-9.264798474879042e-21 6.818015888561649e-14  0.
-8.715452246564049e-18 6.817458925449413e-14  0.
-2.912417229578327e-15 6.527076464275632e-14  0.
-5.948762304561214e-15 5.704780690278678e-14  0.
-3.083168798636319e-14 6.021437038375825e-14  0.
0.0 2.7963966378058554e-11  0.
6.47591224342805e-27 2.796396637844991e-11  0.
5.889313313400255e-28 2.7963966378450176e-11  0.
-4.57150657198594e-28 2.7963966378450173e-11  0.
6.647343739877513e-29 2.7963966378450163e-11  0.
9.15467515053307e-28 2.796396637845017e-11  0.
8.22171462563798e-28 2.7963966378450173e-11  0.
-1.339964553880573e-27 2.7963966378450176e-11  0.
-1.5860328923216539e-27 2.796396637845017e-11  0.
1.2851531230429863e-27 2.796396637845017e-11  0.
-1.3597899650345937e-27 2.796396637845017e-11  0.
1.1452090443087227e-27 2.796396637845017e-11  0.
1.0355861826335498e-27 2.796396637845017e-11  0.
1.6769965434989243e-27 2.7963966378450182e-11  0.
-1.8449294379800417e-27 2.7963966378450173e-11  0.
-2.607552945741426e-23 2.7963966378525604e-11  0.
-1.955257628890939e-20 2.796396637282286e-11  0.
-2.357266587104736e-17 2.7963957162134734e-11  0.
-1.4693671880921137e-14 2.7955267841312277e-11  0.
-3.104228169537316e-12 2.5056690092966736e-11  0.
-1.2382925161076812e-11 2.565006633026951e-11  0.
0.0 5.714975054084626e-09  0.
-7.881650514313705e-26 5.714975054084292e-09  0.
-2.388378943731426e-27 5.71497505408429e-09  0.
-5.015595781835996e-26 5.7149750540842925e-09  0.
5.254433676209137e-26 5.71497505408429e-09  0.
-2.388378943731426e-27 5.71497505408429e-09  0.
-5.015595781835996e-26 5.714975054084292e-09  0.
-1.1941894718657131e-25 5.7149750540842925e-09  0.
-2.1973086282329135e-25 5.71497505408429e-09  0.
2.292843785982169e-25 5.71497505408429e-09  0.
-2.770519574728454e-25 5.714975054084289e-09  0.
2.1495410493582844e-25 5.71497505408429e-09  0.
-5.0155957818359946e-26 5.714975054084289e-09  0.
2.149541049358283e-25 5.714975054084293e-09  0.
-2.268959996544856e-25 5.71497505408429e-09  0.
5.397736412833027e-25 5.71497505408429e-09  0.
-2.9878665965280035e-20 5.714975054079901e-09  0.
-4.129507616215875e-17 5.71497504607947e-09  0.
-3.38081749738383e-14 5.714966354893336e-09  0.
-1.5052410159868057e-11 5.7091905960849025e-09  0.
-3.0762140073873504e-09 5.710366223357189e-09  0.
0.0 4.5000000000000003e-07  0.
-7.642812619940566e-26 4.5000000000000003e-07  0.
-2.292843785982169e-25 4.5000000000000003e-07  0.
-4.299082098716566e-25 4.5000000000000003e-07  0.
4.7767578874628515e-26 4.5000000000000003e-07  0.
-2.292843785982169e-25 4.5000000000000003e-07  0.
-4.299082098716566e-25 4.5000000000000003e-07  0.
2.1973086282329117e-25 4.5000000000000003e-07  0.
-6.018714938203197e-25 4.5000000000000003e-07  0.
5.923179780453938e-25 4.5000000000000003e-07  0.
-6.114250095952452e-25 4.5000000000000003e-07  0.
5.827644622704682e-25 4.5000000000000003e-07  0.
-6.974066515695766e-25 4.5000000000000003e-07  0.
4.346849677591195e-25 4.5000000000000003e-07  0.
-4.537919993089712e-25 4.5000000000000003e-07  0.
6.830763779071881e-25 4.5000000000000003e-07  0.
-3.4311107979077725e-20 4.5000000000000003e-07  0.
-4.9722965924666484e-17 4.5000000000000003e-07  0.
-4.4037632411281813e-14 4.5000000000000003e-07  0.
-2.3904746587594743e-11 4.5000000000000003e-07  0.
-6.127702486916676e-09 4.5000000000000003e-07  0.
</DataArray>
<DataArray type="Float64" Name="sigma_xx" NumberOfComponents="1" format="ascii" >
0.0 
0.0 
0.0 
0.0 
0.0 
0.0 
0.0 
0.0 
0.0 
0.0 
0.0 
0.0 
0.0 
0.0 
0.0 
0.0 
0.0 
0.0 
0.0 
0.0 
0.0 
0.0 
0.0 
0.0 
0.0 
0.0 
0.0 
0.0 
0.0 
0.0 
0.0 
0.0 
0.0 
0.0 
0.0 
0.0 
0.0 
0.0 
0.0 
0.0 
0.0 
0.0 
0.0 
0.0 
0.0 
0.0 
0.0 
0.0 
0.0 
0.0 
0.0 
0.0 
0.0 
0.0 
0.0 
0.0 
0.0 
0.0 
0.0 
0.0 
0.0 
0.0 
0.0 
0.0 
0.0 
0.0 
0.0 
0.0 
0.0 
0.0 
0.0 
0.0 
0.0 
0.0 
0.0 
0.0 
0.0 
0.0 
0.0 
0.0 
0.0 
0.0 
0.0 
0.0 
0.0 
0.0 
0.0 
0.0 
0.0 
0.0 
0.0 
0.0 
0.0 
0.0 
0.0 
0.0 
0.0 
0.0 
0.0 
0.0 
0.0 
0.0 
0.0 
0.0 
0.0 
0.0 
0.0 
0.0 
0.0 
0.0 
0.0 
0.0 
0.0 
0.0 
0.0 
0.0 
0.0 
0.0 
0.0 
0.0 
0.0 
0.0 
0.0 
0.0 
0.0 
0.0 
0.0 
0.0 
0.0 
0.0 
0.0 
0.0 
0.0 
0.0 
0.0 
0.0 
0.0 
0.0 
0.0 
0.0 
0.0 
0.0 
0.0 
0.0 
0.0 
0.0 
0.0 
0.0 
0.0 
0.0 
0.0 
0.0 
0.0 
0.0 
0.0 
0.0 
0.0 
0.0 
0.0 
0.0 
0.0 
0.0 
0.0 
0.0 
0.0 
0.0 
0.0 
0.0 
0.0 
0.0 
0.0 
0.0 
0.0 
0.0 
0.0 
0.0 
0.0 
0.0 
0.0 
0.0 
0.0 
0.0 
0.0 
0.0 
0.0 
0.0 
0.0 
0.0 
0.0 
0.0 
0.0 
0.0 
0.0 
0.0 
0.0 
0.0 
0.0 
0.0 
0.0 
0.0 
0.0 
0.0 
0.0 
0.0 
0.0 
0.0 
0.0 
0.0 
0.0 
0.0 
0.0 
0.0 
0.0 
0.0 
0.0 
0.0 
0.0 
0.0 
0.0 
0.0 
0.0 
0.0 
0.0 
0.0 
0.0 
0.0 
0.0 
0.0 
0.0 
0.0 
0.0 
0.0 
0.0 
0.0 
0.0 
0.0 
0.0 
0.0 
0.0 
0.0 
0.0 
0.0 
0.0 
0.0 
0.0 
0.0 
0.0 
0.0 
0.0 
0.0 
0.0 
0.0 
0.0 
0.0 
0.0 
0.0 
0.0 
0.0 
0.0 
0.0 
0.0 
0.0 
0.0 
0.0 
0.0 
0.0 
0.0 
0.0 
0.0 
0.0 
0.0 
0.0 
0.0 
0.0 
0.0 
0.0 
0.0 
0.0 
0.0 
0.0 
0.0 
0.0 
0.0 
0.0 
0.0 
0.0 
0.0 
0.0 
0.0 
0.0 
0.0 
0.0 
0.0 
0.0 
3.108624468950437e-07 
3.108624468950437e-07 
3.108624468950437e-07 
3.108624468950437e-07 
3.108624468950437e-07 
3.108624468950437e-07 
3.108624468950437e-07 
3.108624468950437e-07 
3.108624468950437e-07 
3.108624468950437e-07 
3.108624468950437e-07 
3.108624468950437e-07 
3.108624468950437e-07 
3.108624468950437e-07 
3.108624468950437e-07 
3.108624468950437e-07 
3.108624468950437e-07 
2.331468351712828e-07 
7.771561172376093e-08 
0.0 
0.0 
0.0002601918680511516 
0.0002601918680511516 
0.0002601918680511516 
0.0002601918680511516 
0.0002601918680511516 
0.0002601918680511516 
0.0002601918680511516 
0.0002601918680511516 
0.0002601918680511516 
0.0002601918680511516 
0.0002601918680511516 
0.0002601918680511516 
0.0002601918680511516 
0.0002601918680511516 
0.0002601918680511516 
0.0002601918680511516 
0.00025708324358220114 
0.00024791280139879735 
0.0002254474384955073 
0.0001720845688168992 
0.00013512524432712775 
0.1909043589876091 
0.1909043589876091 
0.1909043589876091 
0.1909043589876091 
0.1909043589876091 
0.1909043589876091 
0.1909043589876091 
0.1909043589876091 
0.1909043589876091 
0.1909043589876091 
0.1909043589876091 
0.1909043589876091 
0.1909043589876091 
0.1909043589876091 
0.1909043589876091 
0.1909043589876091 
0.1908851798848587 
0.18506383647753916 
0.17129230256429645 
0.13132178677821565 
0.09932064060080843 
78.29884811627605 
78.29884811627605 
78.29884811627605 
78.29884811627605 
78.29884811627605 
78.29884811627605 
78.29884811627605 
78.29884811627605 
78.29884811627605 
78.29884811627605 
78.29884811627605 
78.29884811627605 
78.29884811627605 
78.29884811627605 
78.29884811627605 
78.29884811627605 
78.29878748144556 
78.26607449912257 
72.20067455016019 
56.45154949052153 
46.73517203235275 
16001.829807055217 
16001.829807055217 
16001.829807055217 
16001.829807055217 
16001.829807055217 
16001.829807055217 
16001.829807055217 
16001.829807055217 
16001.829807055217 
16001.829807055217 
16001.829807055217 
16001.829807055217 
16001.829807055217 
16001.829807055217 
16001.829807055217 
16001.829807055217 
16001.829678985441 
16001.73981057273 
15970.133615800236 
11959.307017037063 
7979.99687270345 
1260474.4811656405 
1260474.4811656405 
1260474.4811656405 
1260474.4811656405 
1260474.4811656405 
1260474.4811656405 
1260474.4811656405 
1260474.4811656405 
1260474.4811656405 
1260474.4811656405 
1260474.4811656405 
1260474.4811656405 
1260474.4811656405 
1260474.4811656405 
1260474.4811656405 
1260474.4811656405 
1260474.480969453 
1260474.323020971 
1260402.2842997438 
1244500.1574788694 
1228669.9116269278 
2489101.5191244474 
2489101.5191244474 
2489101.5191244474 
2489101.5191244474 
2489101.5191244474 
2489101.5191244474 
2489101.5191244474 
2489101.5191244474 
2489101.5191244474 
2489101.5191244474 
2489101.5191244474 
2489101.5191244474 
2489101.5191244474 
2489101.5191244474 
2489101.5191244474 
2489101.5191244474 
2489101.518899083 
2489101.328937481 
2489008.360583122 
2465194.341723242 
2441473.101481483 
</DataArray>
<DataArray type="Float64" Name="sigma_yy" NumberOfComponents="1" format="ascii" >
0.0 
0.0 
0.0 
0.0 
0.0 
0.0 
0.0 
0.0 
0.0 
0.0 
0.0 
0.0 
0.0 
0.0 
0.0 
0.0 
0.0 
0.0 
0.0 
0.0 
0.0 
0.0 
0.0 
0.0 
0.0 
0.0 
0.0 
0.0 
0.0 
0.0 
0.0 
0.0 
0.0 
0.0 
0.0 
0.0 
0.0 
0.0 
0.0 
0.0 
0.0 
0.0 
0.0 
0.0 
0.0 
0.0 
0.0 
0.0 
0.0 
0.0 
0.0 
0.0 
0.0 
0.0 
0.0 
0.0 
0.0 
0.0 
0.0 
0.0 
0.0 
0.0 
0.0 
0.0 
0.0 
0.0 
0.0 
0.0 
0.0 
0.0 
0.0 
0.0 
0.0 
0.0 
0.0 
0.0 
0.0 
0.0 
0.0 
0.0 
0.0 
0.0 
0.0 
0.0 
0.0 
0.0 
0.0 
0.0 
0.0 
0.0 
0.0 
0.0 
0.0 
0.0 
0.0 
0.0 
0.0 
0.0 
0.0 
0.0 
0.0 
0.0 
0.0 
0.0 
0.0 
0.0 
0.0 
0.0 
0.0 
0.0 
0.0 
0.0 
0.0 
0.0 
0.0 
0.0 
0.0 
0.0 
0.0 
0.0 
0.0 
0.0 
0.0 
0.0 
0.0 
0.0 
0.0 
0.0 
0.0 
0.0 
0.0 
0.0 
0.0 
0.0 
0.0 
0.0 
0.0 
0.0 
0.0 
0.0 
0.0 
0.0 
0.0 
0.0 
0.0 
0.0 
0.0 
0.0 
0.0 
0.0 
0.0 
0.0 
0.0 
0.0 
0.0 
0.0 
0.0 
0.0 
0.0 
0.0 
0.0 
0.0 
0.0 
0.0 
0.0 
0.0 
0.0 
0.0 
0.0 
0.0 
0.0 
0.0 
0.0 
0.0 
0.0 
0.0 
0.0 
0.0 
0.0 
0.0 
0.0 
0.0 
0.0 
0.0 
0.0 
0.0 
0.0 
0.0 
0.0 
0.0 
0.0 
0.0 
0.0 
0.0 
0.0 
0.0 
0.0 
0.0 
0.0 
0.0 
0.0 
0.0 
0.0 
0.0 
0.0 
0.0 
0.0 
0.0 
0.0 
0.0 
0.0 
0.0 
0.0 
0.0 
0.0 
0.0 
0.0 
0.0 
0.0 
0.0 
0.0 
0.0 
0.0 
0.0 
0.0 
0.0 
0.0 
0.0 
0.0 
0.0 
0.0 
0.0 
0.0 
0.0 
0.0 
0.0 
0.0 
0.0 
0.0 
0.0 
0.0 
0.0 
0.0 
0.0 
0.0 
0.0 
0.0 
0.0 
0.0 
0.0 
0.0 
0.0 
0.0 
0.0 
0.0 
0.0 
0.0 
0.0 
0.0 
0.0 
0.0 
0.0 
0.0 
0.0 
0.0 
0.0 
0.0 
0.0 
0.0 
0.0 
0.0 
0.0 
0.0 
0.0 
0.0 
0.0 
0.0 
0.0 
0.0 
0.0 
0.0 
0.0 
0.0 
0.0 
0.0 
0.0 
0.0 
0.0 
0.0 
0.0 
0.0 
0.0 
0.0 
0.0 
5.773159728050813e-07 
5.773159728050813e-07 
5.773159728050813e-07 
5.773159728050813e-07 
5.773159728050813e-07 
5.773159728050813e-07 
5.773159728050813e-07 
5.773159728050813e-07 
5.773159728050813e-07 
5.773159728050813e-07 
5.773159728050813e-07 
5.773159728050813e-07 
5.773159728050813e-07 
5.773159728050813e-07 
5.773159728050813e-07 
5.773159728050813e-07 
5.773159728050813e-07 
4.3298697960381094e-07 
1.4432899320127032e-07 
0.0 
0.0 
0.000483213469237853 
0.000483213469237853 
0.000483213469237853 
0.000483213469237853 
0.000483213469237853 
0.000483213469237853 
0.000483213469237853 
0.000483213469237853 
0.000483213469237853 
0.000483213469237853 
0.000483213469237853 
0.000483213469237853 
0.000483213469237853 
0.000483213469237853 
0.000483213469237853 
0.000483213469237853 
0.0004801048447689026 
0.00046707082645980325 
0.00043191561438504767 
0.0003785860513971783 
0.0003504863066439156 
0.3545366666912741 
0.3545366666912741 
0.3545366666912741 
0.3545366666912741 
0.3545366666912741 
0.3545366666912741 
0.3545366666912741 
0.3545366666912741 
0.3545366666912741 
0.3545366666912741 
0.3545366666912741 
0.3545366666912741 
0.3545366666912741 
0.3545366666912741 
0.3545366666912741 
0.3545366666912741 
0.35452131785795865 
0.34869597764775045 
0.32832382368397356 
0.2918630337411798 
0.26996440638527014 
145.41214650165554 
145.41214650165554 
145.41214650165554 
145.41214650165554 
145.41214650165554 
145.41214650165554 
145.41214650165554 
145.41214650165554 
145.41214650165554 
145.41214650165554 
145.41214650165554 
145.41214650165554 
145.41214650165554 
145.41214650165554 
145.41214650165554 
145.41214650165554 
145.4121068833469 
145.3864622136258 
139.4288395850651 
126.1370565219799 
118.77729103604293 
29717.683927388265 
29717.683927388265 
29717.683927388265 
29717.683927388265 
29717.683927388265 
29717.683927388265 
29717.683927388265 
29717.683927388265 
29717.683927388265 
29717.683927388265 
29717.683927388265 
29717.683927388265 
29717.683927388265 
29717.683927388265 
29717.683927388265 
29717.683927388265 
29717.683856173007 
29717.630118791796 
29695.27680248274 
27526.035857142197 
25379.09456194476 
2340881.1793076186 
2340881.1793076186 
2340881.1793076186 
2340881.1793076186 
2340881.1793076186 
2340881.1793076186 
2340881.1793076186 
2340881.1793076186 
2340881.1793076186 
2340881.1793076186 
2340881.1793076186 
2340881.1793076186 
2340881.1793076186 
2340881.1793076186 
2340881.1793076186 
2340881.1793076186 
2340881.179210485 
2340881.102206354 
2340845.0085077854 
2332287.1563537815 
2323765.3209913494 
4622617.106945403 
4622617.106945403 
4622617.106945403 
4622617.106945403 
4622617.106945403 
4622617.106945403 
4622617.106945403 
4622617.106945403 
4622617.106945403 
4622617.106945403 
4622617.106945403 
4622617.106945403 
4622617.106945403 
4622617.106945403 
4622617.106945403 
4622617.106945403 
4622617.10683881 
4622617.020640872 
4622577.66530567 
4609773.932137428 
4597009.468213041 
</DataArray>
<DataArray type="Float64" Name="sigma_xy" NumberOfComponents="1" format="ascii" >
0.0 
0.0 
0.0 
0.0 
0.0 
0.0 
0.0 
0.0 
0.0 
0.0 
0.0 
0.0 
0.0 
0.0 
0.0 
0.0 
0.0 
0.0 
0.0 
0.0 
0.0 
0.0 
0.0 
0.0 
0.0 
0.0 
0.0 
0.0 
0.0 
0.0 
0.0 
0.0 
0.0 
0.0 
0.0 
0.0 
0.0 
0.0 
0.0 
0.0 
0.0 
0.0 
0.0 
0.0 
0.0 
0.0 
0.0 
0.0 
0.0 
0.0 
0.0 
0.0 
0.0 
0.0 
0.0 
0.0 
0.0 
0.0 
0.0 
0.0 
0.0 
0.0 
0.0 
0.0 
0.0 
0.0 
0.0 
0.0 
0.0 
0.0 
0.0 
0.0 
0.0 
0.0 
0.0 
0.0 
0.0 
0.0 
0.0 
0.0 
0.0 
0.0 
0.0 
0.0 
0.0 
0.0 
0.0 
0.0 
0.0 
0.0 
0.0 
0.0 
0.0 
0.0 
0.0 
0.0 
0.0 
0.0 
0.0 
0.0 
0.0 
0.0 
0.0 
0.0 
0.0 
0.0 
0.0 
0.0 
0.0 
0.0 
0.0 
0.0 
0.0 
0.0 
0.0 
0.0 
0.0 
0.0 
0.0 
0.0 
0.0 
0.0 
0.0 
0.0 
0.0 
0.0 
0.0 
0.0 
0.0 
0.0 
0.0 
0.0 
0.0 
0.0 
0.0 
0.0 
0.0 
0.0 
0.0 
0.0 
0.0 
0.0 
0.0 
0.0 
0.0 
0.0 
0.0 
0.0 
0.0 
0.0 
0.0 
0.0 
0.0 
0.0 
0.0 
0.0 
0.0 
0.0 
0.0 
0.0 
0.0 
0.0 
0.0 
0.0 
0.0 
0.0 
0.0 
0.0 
0.0 
0.0 
0.0 
0.0 
0.0 
0.0 
0.0 
0.0 
0.0 
0.0 
0.0 
0.0 
0.0 
0.0 
0.0 
0.0 
0.0 
0.0 
0.0 
0.0 
0.0 
0.0 
0.0 
0.0 
0.0 
0.0 
0.0 
0.0 
0.0 
0.0 
0.0 
0.0 
0.0 
0.0 
0.0 
0.0 
0.0 
0.0 
0.0 
0.0 
0.0 
0.0 
0.0 
0.0 
0.0 
0.0 
0.0 
0.0 
0.0 
0.0 
0.0 
0.0 
0.0 
0.0 
0.0 
0.0 
0.0 
0.0 
0.0 
0.0 
0.0 
0.0 
0.0 
9.88329321946841e-38 
7.391743740290732e-37 
1.6517532594255996e-36 
2.345381329553043e-36 
2.8522932108683455e-36 
3.118018357635249e-36 
2.976830932580349e-36 
2.908866486172069e-36 
2.7660659670422596e-36 
2.8715605994412042e-36 
3.1005273043757825e-36 
3.499223863371238e-36 
-7.732736556480691e-25 
-4.615551788782275e-24 
-1.7934775000098844e-23 
-8.453436966470729e-23 
-3.2723707876616343e-22 
-6.190703987529865e-22 
-7.66585618613105e-22 
-5.554629087646322e-22 
-3.0230496587218144e-22 
-1.6211755355904501e-22 
1.0084477748184593e-22 
1.9786000644294948e-22 
9.573871287280692e-23 
7.978226076142227e-23 
1.2285915120759643e-31 
1.166578315338394e-31 
1.088511289476121e-31 
9.930935460415178e-32 
1.0164365828118843e-31 
1.1748595290505401e-31 
1.1838233951181886e-31 
-5.4459455760437774e-24 
-7.725116515815793e-20 
-6.310050299147722e-19 
-2.309226873853285e-18 
-1.0008294153575123e-17 
-2.9667023895434085e-17 
-4.4223227656749514e-17 
-3.323965881853287e-17 
-2.0861256933586734e-17 
9.034428384234803e-18 
3.853121974564421e-18 
2.65747949428897e-18 
3.3216674595306886e-18 
9.576211518133739e-23 
1.5459102993297887e-26 
1.7179259700576833e-27 
1.709295197244084e-27 
1.862031686748727e-27 
1.794146977733202e-27 
2.0065878741054053e-27 
2.4840380066311128e-27 
-2.1115899779929677e-23 
-7.147042502811585e-19 
-1.1922607328321651e-14 
-6.196091448428802e-14 
-1.9103577900240288e-13 
-4.969094763389779e-13 
-1.0684715061292682e-12 
-1.0721979879899101e-12 
-7.19278402072632e-13 
-4.7397012890412554e-14 
1.5805477426413065e-14 
3.950711597669002e-14 
3.1328667691340733e-18 
7.716098702501499e-22 
1.980577593882579e-23 
1.794323574319515e-23 
1.491298447816833e-23 
1.5597446610763384e-23 
1.8440009986383848e-23 
1.4791400285629672e-23 
1.9705711595378422e-23 
-5.270026491458263e-23 
-5.3631460058575975e-18 
-6.80602407343092e-14 
-3.2151455833758494e-10 
-1.5162164445487696e-09 
-4.3754600358912656e-09 
-9.39673988665797e-09 
-1.6657656154452043e-08 
-2.0883212725193002e-08 
2.34792344554292e-10 
1.1742326434345115e-10 
2.7103418865583957e-14 
1.1356057818008216e-17 
7.324131701895277e-21 
7.853721940534213e-21 
7.97379191759238e-21 
8.156445543719481e-21 
8.448262673236785e-21 
7.368750700625223e-21 
4.070823809067856e-21 
6.180862843187697e-21 
2.9973330788686846e-20 
-1.599979171642926e-17 
-2.692022644142649e-13 
-1.7631148217557596e-09 
-9.481682872270079e-07 
-4.207512007855539e-06 
-1.0910588658530377e-05 
-2.0938313729039846e-05 
-2.657766327354703e-05 
1.0066845819451853e-10 
5.036409753880234e-11 
2.9898970872434414e-14 
4.3241441569031984e-17 
2.5758980561929354e-17 
2.6876822226963615e-17 
2.7710877478635244e-17 
2.1784033610148228e-17 
2.4317590551495783e-17 
2.9547447496778894e-17 
2.1621838965838802e-17 
2.2153024304956496e-17 
4.2689308346917085e-17 
-6.682745082781036e-18 
-3.141154974036762e-11 
-5.345834589336445e-09 
-5.237536053768308e-06 
-0.0017559704292552753 
-0.006883353813475199 
-0.015214776714662303 
-0.020164322217623373 
-2.6875423340430033e-10 
-1.3433130826144147e-10 
5.218241136576688e-14 
1.1219846939015016e-14 
1.4073035092397392e-14 
1.8556949729416814e-14 
1.7859844549506227e-14 
1.28586420561834e-14 
1.1686579843512732e-14 
1.3786635610508565e-14 
1.392812382657963e-14 
1.5226108080029597e-14 
1.9844983412682144e-14 
1.6499572507383142e-14 
-3.1739337942767927e-11 
-1.0060778822063867e-08 
-1.3191386288421287e-05 
-0.008777439022345495 
-1.8189476836315308 
-6.27640128036993 
-8.932435708806981 
-1.0001125093169722e-10 
-5.047327632207063e-11 
2.852396151691846e-13 
5.97472254853422e-14 
-6.691769250871373e-13 
6.205155323448822e-13 
8.402251258289983e-13 
-5.199165728206963e-13 
-7.532945872930461e-13 
-6.112266204014248e-14 
3.304387067871228e-13 
1.0895237890609161e-13 
1.0066079094955985e-12 
3.157012363469501e-13 
2.9162861624754934e-11 
-1.2243224664151274e-08 
-1.9389835561776833e-05 
-0.017990033989173614 
-8.015548551245192 
-934.6539658461695 
-1853.3127759027025 
-1.4040982379010552e-10 
-6.4639386168203e-11 
1.2234123025999802e-11 
1.19593184699506e-11 
1.1340027835207752e-11 
1.2558601722048881e-11 
1.2836330349295789e-11 
1.165028115532605e-11 
1.1424526359480257e-11 
1.417078429926905e-11 
1.457795955859461e-11 
1.2228060081547931e-11 
-3.2946533225616874e-12 
-3.900570092869847e-12 
4.391928430930792e-11 
-8.72463563146098e-09 
-1.5423945521521902e-05 
-0.01665033247472363 
-10.60219132310687 
-1850.5266242293421 
-3679.8821356470557 
-3.499630277109084e-10 
-1.629081058546606e-10 
2.3917531622988955e-11 
2.3821518789450946e-11 
2.4046504085950452e-11 
2.391323254089024e-11 
2.4027874730189337e-11 
2.4366069188621706e-11 
2.437896643491786e-11 
2.8491328113645033e-11 
2.852285471570227e-11 
2.4268623327717447e-11 
-8.562917815886726e-12 
-8.399552696135485e-12 
2.843114096426301e-11 
-5.27603484412129e-09 
-9.869224912412558e-06 
-0.011371940431369867 
-8.797436005745443 
-1844.26773161697 
-3670.9633153754467 
</DataArray>
</PointData>
<CellData>
</CellData>
<Points>
<DataArray type="Float64" Name="Points" NumberOfComponents="3" format="ascii">
0.0 0.0 0.0
0.0005 0.0 0.0
0.001 0.0 0.0
0.0015 0.0 0.0
0.002 0.0 0.0
0.0025 0.0 0.0
0.003 0.0 0.0
0.0035 0.0 0.0
0.004 0.0 0.0
0.0045 0.0 0.0
0.005 0.0 0.0
0.0055 0.0 0.0
0.006 0.0 0.0
0.0065 0.0 0.0
0.007 0.0 0.0
0.0075 0.0 0.0
0.008 0.0 0.0
0.0085 0.0 0.0
0.009 0.0 0.0
0.0095 0.0 0.0
0.01 0.0 0.0
0.0 0.0005 0.0
0.0005 0.0005 0.0
0.001 0.0005 0.0
0.0015 0.0005 0.0
0.002 0.0005 0.0
0.0025 0.0005 0.0
0.003 0.0005 0.0
0.0035 0.0005 0.0
0.004 0.0005 0.0
0.0045 0.0005 0.0
0.005 0.0005 0.0
0.0055 0.0005 0.0
0.006 0.0005 0.0
0.0065 0.0005 0.0
0.007 0.0005 0.0
0.0075 0.0005 0.0
0.008 0.0005 0.0
0.0085 0.0005 0.0
0.009 0.0005 0.0
0.0095 0.0005 0.0
0.01 0.0005 0.0
0.0 0.001 0.0
0.0005 0.001 0.0
0.001 0.001 0.0
0.0015 0.001 0.0
0.002 0.001 0.0
0.0025 0.001 0.0
0.003 0.001 0.0
0.0035 0.001 0.0
0.004 0.001 0.0
0.0045 0.001 0.0
0.005 0.001 0.0
0.0055 0.001 0.0
0.006 0.001 0.0
0.0065 0.001 0.0
0.007 0.001 0.0
0.0075 0.001 0.0
0.008 0.001 0.0
0.0085 0.001 0.0
0.009 0.001 0.0
0.0095 0.001 0.0
0.01 0.001 0.0
0.0 0.0015 0.0
0.0005 0.0015 0.0
0.001 0.0015 0.0
0.0015 0.0015 0.0
0.002 0.0015 0.0
0.0025 0.0015 0.0
0.003 0.0015 0.0
0.0035 0.0015 0.0
0.004 0.0015 0.0
0.0045 0.0015 0.0
0.005 0.0015 0.0
0.0055 0.0015 0.0
0.006 0.0015 0.0
0.0065 0.0015 0.0
0.007 0.0015 0.0
0.0075 0.0015 0.0
0.008 0.0015 0.0
0.0085 0.0015 0.0
0.009 0.0015 0.0
0.0095 0.0015 0.0
0.01 0.0015 0.0
0.0 0.002 0.0
0.0005 0.002 0.0
0.001 0.002 0.0
0.0015 0.002 0.0
0.002 0.002 0.0
0.0025 0.002 0.0
0.003 0.002 0.0
0.0035 0.002 0.0
0.004 0.002 0.0
0.0045 0.002 0.0
0.005 0.002 0.0
0.0055 0.002 0.0
0.006 0.002 0.0
0.0065 0.002 0.0
0.007 0.002 0.0
0.0075 0.002 0.0
0.008 0.002 0.0
0.0085 0.002 0.0
0.009 0.002 0.0
0.0095 0.002 0.0
0.01 0.002 0.0
0.0 0.0025 0.0
0.0005 0.0025 0.0
0.001 0.0025 0.0
0.0015 0.0025 0.0
0.002 0.0025 0.0
0.0025 0.0025 0.0
0.003 0.0025 0.0
0.0035 0.0025 0.0
0.004 0.0025 0.0
0.0045 0.0025 0.0
0.005 0.0025 0.0
0.0055 0.0025 0.0
0.006 0.0025 0.0
0.0065 0.0025 0.0
0.007 0.0025 0.0
0.0075 0.0025 0.0
0.008 0.0025 0.0
0.0085 0.0025 0.0
0.009 0.0025 0.0