<?xml version="1.0"?>
<VTKFile type="UnstructuredGrid" version="0.1" byte_order="LittleEndian" compressor="vtkZLibDataCompressor">
<UnstructuredGrid>
<Piece NumberOfPoints="441" NumberOfCells="400">
<PointData>
<DataArray type="Float64" Name="displacement" NumberOfComponents="3" format="ascii" >
0.0 -4.469907255941918e-43  0.
1.1308254438446793e-42 1.5771958910052798e-42  0.
1.798061284296862e-42 -9.08293087693378e-43  0.
8.189747664135614e-43 -7.218275893041516e-44  0.
-2.478328468713992e-42 -3.222232848376858e-42  0.
-1.601269770985647e-41 -1.0308565437981153e-41  0.
-5.731325628932219e-41 -3.097425411292306e-41  0.
-1.9836522706777564e-40 -1.1004206878806682e-40  0.
-5.957989738429508e-40 -2.872846910228584e-40  0.
-1.7218738598921398e-39 -8.385896118292258e-40  0.
-4.5940462002042424e-39 -2.0332265285063076e-39  0.
-1.0942975676453056e-38 -4.3152812586203834e-39  0.
-2.3346995370707875e-38 -8.088155347944804e-39  0.
-4.337477636704568e-38 -1.1940672944151313e-38  0.
-7.123194208877404e-38 -1.591501362538585e-38  0.
-1.0179613678477126e-37 -1.4655865990931122e-38  0.
-1.2699328531663162e-37 -1.0528383529856896e-38  0.
-1.3548608428616786e-37 1.9469848155941345e-39  0.
-1.196015782688405e-37 1.460486946067449e-38  0.
-7.411971700458077e-38 2.523731131762835e-38  0.
-4.2506821637590024e-38 5.393496366171501e-38  0.
0.0 1.683851813460431e-39  0.
1.2676466116934633e-39 -4.164988825232939e-40  0.
1.7959611014878887e-39 9.487907681542963e-40  0.
1.7873452423094417e-39 -9.616668963751003e-40  0.
3.252335618318061e-40 -5.016721903830641e-40  0.
-2.6483140433990877e-39 -2.4863877811062423e-39  0.
-1.2818434196058782e-38 -7.724146292683239e-39  0.
-4.119304323041888e-38 -2.079386413899512e-38  0.
-1.3381468139867794e-37 -7.221888039479423e-38  0.
-3.859652982390328e-37 -1.810705508568127e-37  0.
-1.1211769901211701e-36 -5.569988792340545e-37  0.
-3.047755101748602e-36 -1.375933753628278e-36  0.
-7.222462343878607e-36 -2.8109954881290136e-36  0.
-1.5040792310976805e-35 -5.0286489201100876e-36  0.
-2.658274975068016e-35 -6.537026095765224e-36  0.
-4.073444747307504e-35 -7.65346991130697e-36  0.
-5.313581162191583e-35 -4.758391164143619e-36  0.
-5.868798533265813e-35 -8.512871975903882e-37  0.
-5.308772400468827e-35 6.789062169727779e-36  0.
-3.305947847276038e-35 1.0750063727515872e-35  0.
-1.9468770290078326e-35 2.4636016926845506e-35  0.
0.0 -3.4129718441986516e-37  0.
1.5048080241087595e-36 1.8434316390177003e-36  0.
2.4595825894554102e-36 -8.759872419177084e-37  0.
1.994272523511774e-36 4.001147618133942e-37  0.
1.2271199702543193e-36 -1.1644698145446011e-36  0.
-8.917740604702181e-37 -9.624067342195695e-37  0.
-4.760484977107783e-36 -2.9253880094030635e-36  0.
-1.7600421194366568e-35 -9.975737543319e-36  0.
-5.271978026150455e-35 -2.5315127794654024e-35  0.
-1.6656481983388754e-34 -8.907154761057603e-35  0.
-4.8502605895488656e-34 -2.3084884568096352e-34  0.
-1.4211275324800028e-33 -7.088203267947506e-34  0.
-3.89257896280609e-33 -1.7718131101011116e-33  0.
-9.113674213070098e-33 -3.466419029857469e-33  0.
-1.8113889659103875e-32 -5.5436640849325285e-33  0.
-2.9935297157244407e-32 -6.338899467362913e-33  0.
-4.1767043000410835e-32 -5.472942356067379e-33  0.
-4.8056119619607587e-32 -8.949355305744976e-34  0.
-4.456563826942959e-32 4.705064677882724e-33  0.
-2.8163291392768155e-32 9.499419492469431e-33  0.
-1.615875907446649e-32 2.0704152695918845e-32  0.
0.0 1.935975802098588e-33  0.
1.661640667733149e-33 -2.8884987044792666e-34  0.
2.077700348861484e-33 7.4331600485416336e-34  0.
1.8940220717200774e-33 -9.565573222194806e-34  0.
8.152966715169693e-34 -1.1160850293611995e-34  0.
1.5841548204975504e-35 -6.9477248411268595e-34  0.
-1.7609608583960183e-33 -1.0888372366882276e-33  0.
-5.73879304825218e-33 -2.9198757665505157e-33  0.
-1.9968504223901018e-32 -1.1360960447622257e-32  0.
-6.102334553741789e-32 -2.9996911787274216e-32  0.
-2.1944581707045913e-31 -1.2890149633505268e-31  0.
-7.4685964285625995e-31 -3.980172322315542e-31  0.
-2.0102027358448438e-30 -8.806285472124665e-31  0.
-5.080152723227421e-30 -2.1866527202744458e-30  0.
-1.1461081319417174e-29 -4.181581145665337e-30  0.
-2.0618848124558187e-29 -5.136416063573061e-30  0.
-3.1495316685591105e-29 -5.5748477770213456e-30  0.
-3.814320134646469e-29 -1.205978643450487e-30  0.
-3.663598315064829e-29 3.0033419757727344e-30  0.
-2.3429737626832807e-29 8.092560065406509e-30  0.
-1.3015614002571855e-29 1.7285657308192918e-29  0.
0.0 8.448254562970172e-31  0.
1.5085714543210311e-30 6.0902583538501945e-31  0.
1.6708075850322338e-30 -3.3801672603058302e-31  0.
1.0849655042302586e-30 -3.1362067295022206e-31  0.
3.6547901919653523e-31 -3.9128801669801885e-31  0.
-1.6464229074517775e-32 6.55106282911109e-33  0.
-3.1469188609383903e-31 -3.082596825223923e-31  0.
-1.615022580344118e-30 -1.003325370873807e-30  0.
-5.00400239550428e-30 -2.396167640935585e-30  0.
-1.900687982455975e-29 -1.1746228785770382e-29  0.
-6.629572590551367e-29 -3.542079626767204e-29  0.
-3.5781210143567556e-28 -2.5707713722695734e-28  0.
-1.4976456314645886e-27 -9.444670155481037e-28  0.
-3.435701812456349e-27 -8.868625406962397e-28  0.
-6.553521054864582e-27 -2.2596595998535982e-27  0.
-1.3192441525300903e-26 -4.7793082707222844e-27  0.
-2.1418885409441126e-26 -2.80377626211728e-27  0.
-2.7294649849811026e-26 -3.337061458128629e-27  0.
-2.81906670027726e-26 2.5259239921269837e-27  0.
-1.9289729338141914e-26 4.092456151106479e-27  0.
-1.349995725416379e-26 1.7401423709193384e-26  0.
0.0 2.068494125688797e-28  0.
1.2922812573609424e-27 9.173409183435273e-28  0.
1.174631129553046e-27 -7.7202035501552275e-28  0.
2.4556677511458443e-28 -2.5369356776694563e-28  0.
-6.1287215204767026e-30 4.4687232598578934e-30  0.
-5.6732678716030745e-31 3.5909433742236378e-31  0.
-4.342272087350357e-30 -4.737896093500383e-30  0.
-2.13968880946806e-28 -2.0764943999614507e-28  0.
-1.1269548886406337e-27 -7.058265115041478e-28  0.
-3.316726384730572e-27 -1.5464780981480414e-27  0.
-1.5286443408560712e-26 -1.0392673166170676e-26  0.
-7.300516812556666e-26 -5.0908579955448356e-26  0.
-5.883684588349396e-25 -4.518087704179974e-25  0.
-2.7002205486554556e-24 -1.0811809986675458e-24  0.
-3.867623300943381e-24 -4.552381274393993e-26  0.
-5.765182993505978e-24 -1.85494814597585e-24  0.
-1.1829595435192572e-23 -2.640829913641723e-24  0.
-1.347953745409495e-23 7.639897307359631e-25  0.
-1.453555551827363e-23 -1.817235000073881e-24  0.
-1.501678525314873e-23 -5.185513902574811e-25  0.
-1.7082219737652467e-23 1.541970873318071e-23  0.
0.0 3.939474088490442e-20  0.
1.1857232414496219e-24 3.939271446271446e-20  0.
8.649070126777783e-26 3.939322690820468e-20  0.
-1.887967286566765e-27 3.9393326257084136e-20  0.
-1.2792774788890042e-28 3.9393325344796785e-20  0.
1.7312215496073908e-30 3.9393325201759123e-20  0.
-1.2876248630129094e-28 3.939332506607606e-20  0.
-4.887551840515901e-27 3.9393320174375814e-20  0.
-1.1669172247968194e-25 3.939321527021907e-20  0.
-8.930656332587736e-25 3.939272461210799e-20  0.
-2.3625864087734616e-24 3.9392582429693296e-20  0.
-9.565717028392086e-24 3.9386590088957806e-20  0.
-1.1879897156598565e-22 3.931345410912396e-20  0.
-4.281298906552108e-22 3.863821289366528e-20  0.
-4.505004858209724e-22 3.7016463550354525e-20  0.
-1.0186743687745576e-21 3.586018308194725e-20  0.
-1.7689265635464704e-21 3.2493095986632576e-20  0.
-1.7942001530206846e-21 2.856933767829799e-20  0.
-2.6494848471184575e-21 2.5102691201913333e-20  0.
-3.447334489439827e-21 1.950917207833444e-20  0.
-1.0378493907083153e-20 1.9746553078990426e-20  0.
0.0 2.0988456528338822e-18  0.
1.6706044757125527e-23 2.0994752867013804e-18  0.
-2.8718619132113313e-25 2.0994897037471256e-18  0.
-2.3210547851482965e-26 2.0994896096137716e-18  0.
3.294038619387969e-28 2.099489583085889e-18  0.
1.1644906340101207e-29 2.0994895830991474e-18  0.
-5.005510361420343e-28 2.0994895823382013e-18  0.
-8.81024790252706e-26 2.099489486028222e-18  0.
-3.648703823397308e-24 2.09948593075856e-18  0.
-1.1767918923543452e-22 2.0993979689352746e-18  0.
-4.297982701710356e-22 2.098407921496069e-18  0.
-9.38521199749928e-22 2.0973813060424926e-18  0.
-4.040972773549097e-21 2.0935226698963417e-18  0.
-9.049354730357127e-21 2.0808202546416316e-18  0.
-2.005954119091181e-20 2.054333899638229e-18  0.
-3.864504286760487e-20 1.9994443005589643e-18  0.
-6.57829525813237e-20 1.8993335542771507e-18  0.
-1.0151363378569673e-19 1.7405394220637316e-18  0.
-1.4167521763749227e-19 1.504514108634642e-18  0.
-1.9287012912830132e-19 1.1982723309893883e-18  0.
-6.338231864258502e-19 1.2183433144290854e-18  0.
0.0 8.903836820271999e-17  0.
-3.2560860413555903e-23 8.903839269535829e-17  0.
-2.324533679495291e-24 8.903842640593332e-17  0.
4.405984976394191e-26 8.903842370593407e-17  0.
1.9242138918438935e-27 8.903842369084227e-17  0.
4.274056274270812e-29 8.90384236929006e-17  0.
-3.699918595174281e-27 8.903842368804099e-17  0.
-9.03510911912092e-25 8.903842276995459e-17  0.
-3.683427574838625e-23 8.903838108170721e-17  0.
-1.551853119552886e-21 8.903672828283598e-17  0.
-9.186639570804118e-21 8.902507701294723e-17  0.
-3.6423009711133586e-20 8.898318733584532e-17  0.
-1.1850776576488277e-19 8.883497103400864e-17  0.
-3.153551918595271e-19 8.842721604340589e-17  0.
-7.253463544476588e-19 8.744429361838121e-17  0.
-1.4628354019030998e-18 8.536894023794839e-17  0.
-2.6063444831533923e-18 8.15019366010374e-17  0.
-4.170158237052762e-18 7.504952705747691e-17  0.
-6.0500640267005856e-18 6.533097479246037e-17  0.
-8.399413963588775e-18 5.239632019591888e-17  0.
-2.7981059427739136e-17 5.35157754118698e-17  0.
0.0 3.2118227835906346e-15  0.
-1.2174370848588523e-22 3.211824879951993e-15  0.
4.7358637395651254e-24 3.2118247406093123e-15  0.
1.6921014920290994e-25 3.211824740773677e-15  0.
4.420389361255139e-27 3.2118247409654018e-15  0.
4.1790096119075105e-29 3.211824740973489e-15  0.
-3.054625425167758e-27 3.2118247409626017e-15  0.
-2.711682221568818e-24 3.2118247360143104e-15  0.
-3.4131021947315606e-22 3.2118238985024236e-15  0.
-1.242589346668387e-20 3.211812377967262e-15  0.
-1.3930486780355657e-19 3.211679816662856e-15  0.
-7.255482712802137e-19 3.210905627904033e-15  0.
-2.8673680720285528e-18 3.207614266023955e-15  0.
-8.64265848581573e-18 3.1969379319698202e-15  0.
-2.1900369078477715e-17 3.1684201829685706e-15  0.
-4.6923223197104283e-17 3.1038701098239417e-15  0.
-8.826771360782119e-17 2.976616884197617e-15  0.
-1.4657848598292301e-16 2.7550190024709164e-15  0.
-2.190143188794557e-16 2.41019146109248e-15  0.
-3.1094461168741626e-16 1.9417171706999035e-15  0.
-1.0420277552786487e-15 1.991179242402712e-15  0.
0.0 9.715702653154426e-14  0.
6.517715880506102e-22 9.71570247677577e-14  0.
9.817695068994804e-24 9.715702485892564e-14  0.
2.2676568290659453e-25 9.715702487046327e-14  0.
3.349710442061086e-27 9.715702487100917e-14  0.
4.218182552736956e-29 9.71570248710245e-14  0.
-3.345928059343487e-26 9.71570248709773e-14  0.
-4.230395364534061e-25 9.715702486128913e-14  0.
-1.6616382578700366e-21 9.715702358488308e-14  0.
-5.904597310745623e-20 9.715698913187745e-14  0.
-9.8639909398947e-19 9.715623169517408e-14  0.
-1.0584232022531183e-17 9.714629300653048e-14  0.
-5.1042732454818165e-17 9.709155604030098e-14  0.
-1.8840169778607736e-16 9.687430621777164e-14  0.
-5.269731120955608e-16 9.621798758676798e-14  0.
-1.241442792182785e-15 9.458294922742605e-14  0.
-2.4677334649763694e-15 9.113624087127488e-14  0.
-4.306838499815757e-15 8.481886601530983e-14  0.
-6.632340372341703e-15 7.46197834342034e-14  0.
-9.687500648586795e-15 6.043734447493153e-14  0.
-3.2602701806256166e-14 6.225133398275855e-14  0.
0.0 2.4228741651656418e-12  0.
6.440020301665071e-22 2.422874166088148e-12  0.
-3.7754619616014575e-24 2.422874166487779e-12  0.
-6.990125705996718e-26 2.422874166505065e-12  0.
3.502060067577109e-27 2.422874166505761e-12  0.
3.99910913519876e-28 2.4228741665057814e-12  0.
-3.4563289411896444e-26 2.4228741665056626e-12  0.
-6.917998137059597e-23 2.4228741663274626e-12  0.
-5.814983989436054e-21 2.422874163080226e-12  0.
-2.1627436017195718e-19 2.4228740354778678e-12  0.
-4.656680162760143e-18 2.422870973447533e-12  0.
-7.08640172904745e-17 2.4228169641713275e-12  0.
-6.717695944649833e-16 2.4221906955856366e-12  0.
-2.9582086091348703e-15 2.4190174135755667e-12  0.
-1.0071593491226243e-14 2.407359298822451e-12  0.
-2.5931723808085735e-14 2.3747594549634407e-12  0.
-5.637123121388625e-14 2.2996130221229017e-12  0.
-1.0311934365119188e-13 2.1532387266651193e-12  0.
-1.659958309900581e-13 1.9061555644140377e-12  0.
-2.493249973623749e-13 1.5532896114400237e-12  0.
-8.440594667021575e-13 1.6088491905877567e-12  0.
0.0 4.8787813499518233e-11  0.
-1.6274645572274747e-21 4.8787813498475934e-11  0.
-1.2630049491089421e-23 4.878781349810065e-11  0.
3.9107313968362706e-26 4.8787813498097725e-11  0.
1.3316804919779447e-26 4.878781349809832e-11  0.
8.228711488898195e-27 4.8787813498098346e-11  0.
-8.49684737860353e-26 4.8787813498098126e-11  0.
-8.898952448987641e-23 4.8787813498154904e-11  0.
-1.913596085811886e-20 4.878781348754289e-11  0.
-6.501919874392159e-19 4.878781316627433e-11  0.
-1.6385737677267057e-17 4.878780405790672e-11  0.
-3.121059877204938e-16 4.8787605087555395e-11  0.
-4.17481246986175e-15 4.878448707515119e-11  0.
-3.4516548300038264e-14 4.875259896412852e-11  0.
-1.37573752118004e-13 4.860519647030382e-11  0.
-4.2785214557588787e-13 4.810837372993702e-11  0.
-1.0042626632817312e-12 4.683372532069963e-11  0.
-1.9951317602240513e-12 4.414085475585576e-11  0.
-3.3356186492832713e-12 3.934890627498214e-11  0.
-5.22939361346566e-12 3.229381279641101e-11  0.
-1.7693385394486142e-11 3.366793622513424e-11  0.
0.0 7.730870627517286e-10  0.
-1.8781152310531e-21 7.730870627463827e-10  0.
-2.8034711564178837e-25 7.730870627465342e-10  0.
-1.3462043723355448e-24 7.73087062746537e-10  0.
-1.2714275158411672e-26 7.730870627465365e-10  0.
4.4309027259013655e-26 7.730870627465365e-10  0.
-7.064402275019296e-25 7.730870627465355e-10  0.
-1.7549480673090628e-22 7.730870627463065e-10  0.
-4.7116024190799765e-20 7.730870627293444e-10  0.
-1.631332214123333e-18 7.730870620423695e-10  0.
-4.616324073225171e-17 7.730870403928808e-10  0.
-1.0266889365340573e-15 7.730864950018701e-10  0.
-1.7077937504788983e-14 7.730759952347654e-10  0.
-1.9753302100236953e-13 7.729319628424684e-10  0.
-1.4002667917328779e-12 7.716536475224578e-10  0.
-4.9983115335617386e-12 7.663172843488794e-10  0.
-1.4019310649519138e-11 7.500067060016201e-10  0.
-2.9644683112848105e-11 7.120496160425629e-10  0.
-5.335518753973043e-11 6.396453017956065e-10  0.
-8.659183825210368e-11 5.293080288375608e-10  0.
-2.938747280899905e-10 5.567961010017951e-10  0.
0.0 9.330747745444426e-09  0.
5.336474151295742e-22 9.330747745442608e-09  0.
-5.708484178634755e-23 9.330747745441394e-09  0.
5.96305130873974e-25 9.330747745441316e-09  0.
2.264819960875677e-24 9.33074774544131e-09  0.
1.7663554700133772e-24 9.330747745441311e-09  0.
1.4985899624653775e-24 9.330747745441311e-09  0.
-9.046771313535037e-22 9.330747745440682e-09  0.
-9.453770430853074e-20 9.330747745410766e-09  0.
-3.504178438931167e-18 9.330747744175346e-09  0.
-1.082645224745952e-16 9.33074770185532e-09  0.
-2.6934343401251915e-15 9.33074651834054e-09  0.
-5.2079154379820015e-14 9.33072034873376e-09  0.
-7.443486760626799e-13 9.330282541152848e-09  0.
-7.305526265571975e-12 9.32510851086161e-09  0.
-4.3460454608324987e-11 9.286075542052606e-09  0.
-1.371256890105788e-10 9.14081656459854e-09  0.
-3.4101742724944673e-10 8.744545735639395e-09  0.
-6.430412373546038e-10 7.923897710534224e-09  0.
-1.1191782581613934e-09 6.62192390765424e-09  0.
-3.730927351734422e-09 7.040342053700111e-09  0.
0.0 8.223624118943651e-08  0.
-4.891454558997018e-22 8.223624118943514e-08  0.
1.2856627195398602e-22 8.223624118943534e-08  0.
1.6150500380128074e-24 8.223624118943529e-08  0.
-6.609723073151293e-24 8.223624118943529e-08  0.
1.4127811667577622e-24 8.223624118943529e-08  0.
-2.0547524460963426e-24 8.223624118943529e-08  0.
-2.021526602872225e-21 8.223624118943464e-08  0.
-1.6817380128775447e-19 8.223624118939049e-08  0.
-6.5575831373856166e-18 8.223624118750135e-08  0.
-2.1665021957143084e-16 8.223624111835165e-08  0.
-5.858134389896535e-15 8.223623902801124e-08  0.
-1.2612026418748076e-13 8.223618797408997e-08  0.
-2.0847334299552437e-12 8.223521102979209e-08  0.
-2.5091518524436258e-11 8.22212542511695e-08  0.
-2.0391513758727092e-10 8.208200620816689e-08  0.
-9.907304945953598e-10 8.121306616878699e-08  0.
-2.7184871873460537e-09 7.83814117162651e-08  0.
-5.892549457254232e-09 7.168163127429707e-08  0.
-1.0687442814341334e-08 6.06038699043547e-08  0.
-3.510534491872255e-08 6.547239879629968e-08  0.
0.0 5.007210475893665e-07  0.
3.725174663697901e-22 5.007210475893758e-07  0.
-2.240780298997203e-22 5.007210475893774e-07  0.
-2.0652521741021737e-22 5.007210475893781e-07  0.
1.813181638167742e-22 5.007210475893777e-07  0.
9.766243163369287e-23 5.007210475893778e-07  0.
4.761573504212801e-23 5.007210475893778e-07  0.
-3.6815849705715155e-21 5.007210475893768e-07  0.
-2.6403394417087734e-19 5.007210475893202e-07  0.
-1.0831421938447218e-17 5.007210475868385e-07  0.
-3.761272584548126e-16 5.007210474920684e-07  0.
-1.0816773992193286e-14 5.007210444590131e-07  0.
-2.5179701394295624e-13 5.007209647457172e-07  0.
-4.607672879485992e-12 5.007192904727117e-07  0.
-6.372953871576174e-11 5.006920474019509e-07  0.
-6.29259943996035e-10 5.003669152254989e-07  0.
-4.098678892230936e-09 4.977008265824783e-07  0.
-1.572349321085208e-08 4.844516357090218e-07  0.
-3.710370414151554e-08 4.480160510804042e-07  0.
-7.549815609324827e-08 3.841443803850604e-07  0.
-2.2989799135255463e-07 4.226893222307642e-07  0.
0.0 1.9628187687449383e-06  0.
4.933295635803404e-22 1.962818768744931e-06  0.
7.937657831627355e-22 1.9628187687449324e-06  0.
4.1879799556060786e-22 1.9628187687449337e-06  0.
7.251335677676386e-22 1.9628187687449324e-06  0.
1.260021820939003e-21 1.9628187687449337e-06  0.
8.246166584026144e-22 1.962818768744935e-06  0.
-5.9076999843901275e-21 1.9628187687449324e-06  0.
-3.748320826343882e-19 1.962818768744874e-06  0.
-1.588070913253428e-17 1.9628187687421757e-06  0.
-5.72295521180686e-16 1.9628187686350396e-06  0.
-1.720769092397314e-14 1.9628187650591977e-06  0.
-4.2344025449787466e-13 1.9628186661654995e-06  0.
-8.321440242361688e-12 1.9628164430246094e-06  0.
-1.2646831463596512e-10 1.962777042153785e-06  0.
-1.4231278638992244e-09 1.962243492386126e-06  0.
-1.113589899930655e-08 1.957071172429188e-06  0.
-5.569000876631961e-08 1.923590386566144e-06  0.
-1.6440733695632368e-07 1.800698591169383e-06  0.
-3.653359050462932e-07 1.5747667144492185e-06  0.
-9.98407805041728e-07 1.7713353685224201e-06  0.
0.0 4.651915251122807e-06  0.
3.9000600951359014e-22 4.6519152511228094e-06  0.
-2.314521722039048e-21 4.651915251122808e-06  0.
7.231926728803117e-22 4.651915251122805e-06  0.
-1.5365978156078698e-21 4.651915251122805e-06  0.
-6.50669323509581e-22 4.651915251122802e-06  0.
-2.4456188824773237e-22 4.651915251122802e-06  0.
-9.480490345851317e-21 4.651915251122804e-06  0.
-4.835824471206484e-19 4.651915251122752e-06  0.
-2.0783354198066722e-17 4.651915251120409e-06  0.
-7.678651037132672e-16 4.6519152510256285e-06  0.
-2.3794257677145335e-14 4.6519152477709374e-06  0.
-6.077464085214401e-13 4.651915154431611e-06  0.
-1.252179986476214e-11 4.651912963025078e-06  0.
-2.0247064974991368e-10 4.651871652091261e-06  0.
-2.4786528817063718e-09 4.651268036404959e-06  0.
-2.186814535824208e-08 4.644648910074425e-06  0.
-1.2985535256742155e-07 4.594731421909688e-06  0.
-4.791289625138462e-07 4.365619753128282e-06  0.
-1.164716262136907e-06 3.953444011475406e-06  0.
-2.6416288876569195e-06 4.477100477687273e-06  0.
0.0 7.12596886798844e-06  0.
2.398909306494337e-21 7.1259688679884424e-06  0.
-2.5781666997371546e-21 7.125968867988442e-06  0.
1.213518622657332e-21 7.1259688679884424e-06  0.
-2.8470910036644823e-22 7.125968867988441e-06  0.
-4.0004153118029518e-22 7.125968867988442e-06  0.
-1.1659946584349632e-21 7.125968867988441e-06  0.
-7.783464255936908e-21 7.1259688679884424e-06  0.
-5.583145052161635e-19 7.125968867988414e-06  0.
-2.4375582479010758e-17 7.125968867987057e-06  0.
-9.13640925848262e-16 7.125968867931159e-06  0.
-2.8810082175745585e-14 7.125968865978606e-06  0.
-7.518698000765567e-13 7.125968808858683e-06  0.
-1.5916929847063013e-11 7.125967430168247e-06  0.
-2.6667743398788843e-10 7.125940600695504e-06  0.
-3.426041949992485e-09 7.125527663507047e-06  0.
-3.242450339078961e-08 7.12071792698681e-06  0.
-2.140454173762013e-07 7.080233574588357e-06  0.
-9.202378244479019e-07 6.8736349894058595e-06  0.
-2.389966785736401e-06 6.519790254654363e-06  0.
-3.904162196000598e-06 7.108942640173954e-06  0.
0.0 9.450000000000006e-06  0.
-2.0964282784075863e-21 9.450000000000006e-06  0.
1.4959993654692785e-21 9.450000000000006e-06  0.
-8.870081140176927e-22 9.450000000000006e-06  0.
1.2371587974423853e-21 9.450000000000006e-06  0.
-1.4810290062499704e-21 9.450000000000006e-06  0.
-1.6207181255319889e-21 9.450000000000006e-06  0.
-8.327204994645746e-21 9.450000000000006e-06  0.
-5.818884383112128e-19 9.450000000000006e-06  0.
-2.5698624081335837e-17 9.450000000000006e-06  0.
-9.677419033100922e-16 9.450000000000006e-06  0.
-3.0692017416718086e-14 9.450000000000006e-06  0.
-8.066256712283651e-13 9.450000000000006e-06  0.
-1.7229600867973913e-11 9.450000000000006e-06  0.
-2.9200882034306367e-10 9.450000000000006e-06  0.
-3.8128753022770735e-09 9.450000000000006e-06  0.
-3.692664567341148e-08 9.450000000000006e-06  0.
-2.5319761049448876e-07 9.450000000000006e-06  0.
-1.1478486098723485e-06 9.450000000000006e-06  0.
-3.0513588886385647e-06 9.450000000000006e-06  0.
-4.130348304781818e-06 9.450000000000006e-06  0.
</DataArray>
<DataArray type="Float64" Name="sigma_xx" NumberOfComponents="1" format="ascii" >
0.0 
0.0 
0.0 
0.0 
0.0 
0.0 
0.0 
0.0 
0.0 
0.0 
0.0 
0.0 
0.0 
0.0 
0.0 
0.0 
0.0 
0.0 
0.0 
0.0 
0.0 
0.0 
0.0 
0.0 
0.0 
0.0 
0.0 
0.0 
0.0 
0.0 
0.0 
0.0 
0.0 
0.0 
0.0 
0.0 
0.0 
0.0 
0.0 
0.0 
0.0 
0.0 
0.0 
0.0 
0.0 
0.0 
0.0 
0.0 
0.0 
0.0 
0.0 
0.0 
0.0 
0.0 
0.0 
0.0 
0.0 
0.0 
0.0 
0.0 
0.0 
0.0 
0.0 
0.0 
0.0 
0.0 
0.0 
0.0 
0.0 
0.0 
0.0 
0.0 
0.0 
0.0 
0.0 
0.0 
0.0 
0.0 
0.0 
0.0 
0.0 
0.0 
0.0 
0.0 
0.0 
0.0 
0.0 
0.0 
0.0 
0.0 
0.0 
0.0 
0.0 
0.0 
0.0 
0.0 
0.0 
0.0 
0.0 
0.0 
0.0 
0.0 
0.0 
0.0 
0.0 
0.0 
0.0 
0.0 
0.0 
0.0 
0.0 
0.0 
0.0 
0.0 
0.0 
0.0 
0.0 
0.0 
0.0 
0.0 
0.0 
0.0 
0.0 
0.0 
0.0 
0.0 
5.595524044110787e-06 
5.595524044110787e-06 
5.595524044110787e-06 
5.595524044110787e-06 
5.595524044110787e-06 
5.595524044110787e-06 
5.595524044110787e-06 
5.595524044110787e-06 
5.595524044110787e-06 
5.595524044110787e-06 
5.595524044110787e-06 
5.595524044110787e-06 
5.595524044110787e-06 
5.595524044110787e-06 
5.523359547510152e-06 
5.36792832406263e-06 
5.1292303737682215e-06 
4.596323321948146e-06 
3.9801495432811845e-06 
3.0753177782116823e-06 
2.409183963436589e-06 
0.00024900081996293 
0.00024900081996293 
0.00024900081996293 
0.00024900081996293 
0.00024900081996293 
0.00024900081996293 
0.00024900081996293 
0.00024900081996293 
0.00024892310435120624 
0.0002487676731277587 
0.0002486177930194343 
0.0002484679129111099 
0.0002478572902475661 
0.0002460309733720577 
0.00024206192605902277 
0.00023482882305358988 
0.00022254420528611255 
0.00020297097336197106 
0.0001747713085364921 
0.00012664869153411468 
9.487965968446582e-05 
0.008987344202182609 
0.008987344202182609 
0.008987344202182609 
0.008987344202182609 
0.008987344202182609 
0.008987344202182609 
0.008987344202182609 
0.008987344202182609 
0.008987266486570885 
0.008986739130634188 
0.008985018284946019 
0.008978862098274473 
0.008959277764120085 
0.008906747561709945 
0.008787420791023234 
0.008549772001487096 
0.008126505024463878 
0.007443923255578962 
0.006433020782736774 
0.00466800487153307 
0.003498423772896329 
0.271790612238476 
0.271790612238476 
0.271790612238476 
0.271790612238476 
0.271790612238476 
0.271790612238476 
0.271790612238476 
0.271790612238476 
0.2717905400739794 
0.27178810313444035 
0.27176601524736543 
0.2716567637506272 
0.27124169577064083 
0.27002431401967886 
0.2670110355040832 
0.2606282134554049 
0.24869783454839467 
0.2288091216495757 
0.1985387410030625 
0.14433586548179272 
0.10818365092646326 
6.775054761654074 
6.775054761654074 
6.775054761654074 
6.775054761654074 
6.775054761654074 
6.775054761654074 
6.775054761654074 
6.775054761654074 
6.775054173235871 
6.775043248641309 
6.774890548566502 
6.773497240875058 
6.767148391650933 
6.744888253473745 
6.684447162452754 
6.545574915417516 
6.272344543756246 
5.797434149412693 
5.05225504765505 
3.679234145126385 
2.754118932912773 
136.33384428057832 
136.3338442028627 
136.3338441251471 
136.3338441251471 
136.3338441251471 
136.3338441251471 
136.3338441251471 
136.3338441251471 
136.33384244871033 
136.33380281374835 
136.33309115523844 
136.3240732521475 
136.2524840176071 
135.9570054926262 
135.0088002616267 
132.64581245620016 
127.64637234985437 
118.56906717844224 
103.79492332290849 
75.68088545573113 
56.61611031104738 
2157.8612030559434 
2157.8612029782275 
2157.861202900512 
2157.861202900512 
2157.861202900512 
2157.861202900512 
2157.861202900512 
2157.861202828348 
2157.8611986206024 
2157.8610802208677 
2157.858584078686 
2157.819385351089 
2157.392294105386 
2154.4924594218965 
2143.771548532291 
2112.6700043672113 
2042.2629809779817 
1906.327854153677 
1676.561152730293 
1223.0189328360505 
910.8251173672862 
25989.69433245112 
25989.69433245112 
25989.69433245112 
25989.69433245112 
25989.69433245112 
25989.69433245112 
25989.69433245112 
25989.694332156912 
25989.694322076088 
25989.69402539119 
25989.687003868938 
25989.55878186925 
25987.83938939641 
25972.05661474255 
25882.434279164692 
25589.995512695354 
24835.69049080424 
23302.723832507858 
20577.666346199836 
14991.206397238493 
11134.140997731683 
228111.91919946953 
228111.91919946953 
228111.91919946953 
228111.91919946953 
228111.91919946953 
228111.91919946953 
228111.91919946953 
228111.91919903655 
228111.91917891373 
228111.9185411572 
228111.90208146806 
228111.5664871768 
228106.36016788444 
228048.06389158097 
227609.41004560934 
225586.53732576143 
219877.77305791923 
207065.286208205 
183434.1758237434 
132967.77277513876 
97391.12894556751 
1376398.0848465525 
1376398.0848465525 
1376398.0848465525 
1376398.0848465525 
1376398.0848465525 
1376398.0848465525 
1376398.0848465525 
1376398.084845764 
1376398.0848102816 
1376398.0836154153 
1376398.0506791614 
1376397.3215517418 
1376384.7558852928 
1376223.0139654102 
1374755.3687483228 
1366040.9348728165 
1334683.9193857312 
1260205.039327491 
1114360.9142113482 
797355.5340210628 
575675.7521125752 
5272107.0831376985 
5272107.083137621 
5272107.083137543 
5272107.083137543 
5272107.083137543 
5272107.083137543 
5272107.083137543 
5272107.083136172 
5272107.083079856 
5272107.081107361 
5272107.023962367 
5272105.679263243 
5272080.65449563 
5271725.124093789 
5268047.651980335 
5242125.6528164195 
5127313.148972644 
4821436.549656084 
4209472.911752256 
2906802.9063485367 
2002456.1212194914 
11649576.884879528 
11649576.88487945 
11649576.884879371 
11649576.884879371 
11649576.884879371 
11649576.884879371 
11649576.884879371 
11649576.884877495 
11649576.884797325 
11649576.88190665 
11649576.79507282 
11649574.659481945 
11649532.678267714 
11648893.21804415 
11641653.624592703 
11584136.88268251 
11288372.666535474 
10389404.891508155 
8657191.834588168 
5377246.677557628 
3175434.3395292847 
14494206.38521592 
14494206.38521592 
14494206.38521592 
14494206.385215882 
14494206.385215882 
14494206.38521592 
14494206.385215882 
14494206.385213349 
14494206.385110391 
14494206.381329045 
14494206.26488812 
14494203.314062279 
14494143.127273567 
14493182.727664048 
14481635.916943097 
14382307.612189475 
13814975.201204784 
11880977.96036702 
8294449.060501128 
3680942.0373717006 
1198614.5393358106 
13466899.070460876 
13466899.070460876 
13466899.070460955 
13466899.070460916 
13466899.070460916 
13466899.070460953 
13466899.070460876 
13466899.070458101 
13466899.070338711 
13466899.065903572 
13466898.927342325 
13466895.354337227 
13466820.90302357 
13465600.630668452 
13450410.623245843 
13313554.177563513 
12480567.787097853 
9409771.46265695 
3776168.6672239834 
353656.0221822559 
204120.54053469503 
13044820.61519891 
13044820.61519891 
13044820.615199067 
13044820.615199067 
13044820.615199067 
13044820.615199067 
13044820.615198988 
13044820.615196336 
13044820.61507098 
13044820.610394686 
13044820.463613532 
13044816.656903043 
13044736.780390183 
13043415.969318312 
13026787.766323421 
12874631.74168191 
11928746.584220175 
8342821.9728724845 
1758730.6161692548 
-357228.30765456357 
1334092.2506502517 
</DataArray>
<DataArray type="Float64" Name="sigma_yy" NumberOfComponents="1" format="ascii" >
0.0 
0.0 
0.0 
0.0 
0.0 
0.0 
0.0 
0.0 
0.0 
0.0 
0.0 
0.0 
0.0 
0.0 
0.0 
0.0 
0.0 
0.0 
0.0 
0.0 
0.0 
0.0 
0.0 
0.0 
0.0 
0.0 
0.0 
0.0 
0.0 
0.0 
0.0 
0.0 
0.0 
0.0 
0.0 
0.0 
0.0 
0.0 
0.0 
0.0 
0.0 
0.0 
0.0 
0.0 
0.0 
0.0 
0.0 
0.0 
0.0 
0.0 
0.0 
0.0 
0.0 
0.0 
0.0 
0.0 
0.0 
0.0 
0.0 
0.0 
0.0 
0.0 
0.0 
0.0 
0.0 
0.0 
0.0 
0.0 
0.0 
0.0 
0.0 
0.0 
0.0 
0.0 
0.0 
0.0 
0.0 
0.0 
0.0 
0.0 
0.0 
0.0 
0.0 
0.0 
0.0 
0.0 
0.0 
0.0 
0.0 
0.0 
0.0 
0.0 
0.0 
0.0 
0.0 
0.0 
0.0 
0.0 
0.0 
0.0 
0.0 
0.0 
0.0 
0.0 
0.0 
0.0 
0.0 
0.0 
0.0 
0.0 
0.0 
0.0 
0.0 
0.0 
0.0 
0.0 
0.0 
0.0 
0.0 
0.0 
0.0 
0.0 
0.0 
0.0 
0.0 
0.0 
1.0391687510491464e-05 
1.0391687510491464e-05 
1.0391687510491464e-05 
1.0391687510491464e-05 
1.0391687510491464e-05 
1.0391687510491464e-05 
1.0391687510491464e-05 
1.0391687510491464e-05 
1.0391687510491464e-05 
1.0391687510491464e-05 
1.0391687510491464e-05 
1.0391687510491464e-05 
1.0391687510491464e-05 
1.0391687510491464e-05 
1.0352829704629583e-05 
1.0064171718227042e-05 