<?xml version="1.0"?>
<VTKFile type="UnstructuredGrid" version="0.1" byte_order="LittleEndian" compressor="vtkZLibDataCompressor">
<UnstructuredGrid>
<Piece NumberOfPoints="441" NumberOfCells="400">
<PointData>
<DataArray type="Float64" Name="displacement" NumberOfComponents="3" format="ascii" >
0.0 6.918777014349812e-55  0.
1.3505958018537124e-54 6.587423062842503e-55  0.
2.2416601305811955e-54 2.3239977049740788e-55  0.
1.9011917310023194e-54 -5.7266020779561305e-55  0.
-2.4154230748909517e-54 -3.742885974957582e-54  0.
-2.3718914435981615e-53 -1.7557078738690572e-53  0.
-1.0546754262433446e-52 -6.41805029726398e-53  0.
-3.8469848613743065e-52 -2.1502248926843128e-52  0.
-1.2075697774010257e-51 -6.077878233603782e-52  0.
-3.337420243407004e-51 -1.521950750062346e-51  0.
-8.183909089998283e-51 -3.324375903950194e-51  0.
-1.7822823768600596e-50 -6.314357532358225e-51  0.
-3.4631416239147544e-50 -1.0494127524307033e-50  0.
-5.994742231618547e-50 -1.482203748448797e-50  0.
-9.253060789845145e-50 -1.776131812394993e-50  0.
-1.2675686419971034e-49 -1.646733123704356e-50  0.
-1.5300442889804505e-49 -9.769423073295209e-51  0.
-1.5978147651993431e-49 2.89975536411781e-51  0.
-1.3921172569837848e-49 1.8427253563904466e-50  0.
-8.547615274052249e-50 2.889926055390613e-50  0.
-4.930669371337348e-50 6.231255701424278e-50  0.
0.0 9.967665057571918e-52  0.
1.890207873016164e-51 8.947554554030178e-52  0.
3.212191520744359e-51 4.282110711797814e-52  0.
3.444185775732718e-51 -1.966642238371191e-52  0.
1.5660025048838253e-51 -1.685748039830446e-51  0.
-7.537864632196303e-51 -7.439474219249948e-51  0.
-5.061334398269544e-50 -3.5717723363002955e-50  0.
-2.112585003665287e-49 -1.2520665603874524e-49  0.
-7.453285697570122e-49 -4.096862836243939e-49  0.
-2.2565136862960035e-48 -1.103628453163927e-48  0.
-6.001322687310761e-48 -2.64602732211266e-48  0.
-1.410542848944144e-47 -5.467718836130549e-48  0.
-2.930037078074506e-47 -9.744014300181695e-48  0.
-5.393654163395976e-47 -1.4917571659399046e-47  0.
-8.767708194646146e-47 -1.8855082159712982e-47  0.
-1.2559239610907356e-46 -1.9096847379353873e-47  0.
-1.5710081810938975e-46 -1.2423085410294993e-47  0.
-1.6866428807744257e-46 7.453589198362233e-49  0.
-1.4993707276630303e-46 1.8860294725674692e-47  0.
-9.299553446806305e-47 3.1031084968715684e-47  0.
-5.392035052964101e-47 6.839069621170538e-47  0.
0.0 3.341159629397612e-48  0.
5.095293137048292e-48 1.7575503346668785e-48  0.
8.43034315310176e-48 1.581043445166298e-48  0.
9.352337168047612e-48 -6.5959195381210525e-49  0.
7.023596363690983e-48 -1.6721420386344223e-48  0.
-1.0176081444153678e-48 -6.387720633908043e-48  0.
-3.3143108945923597e-47 -2.582383780231757e-47  0.
-1.9433739677825213e-46 -1.3569208886793383e-46  0.
-7.804726590071619e-46 -4.51511940142497e-46  0.
-2.6630083264638115e-45 -1.434048862855511e-45  0.
-7.71000010555616e-45 -3.620436448730896e-45  0.
-1.9589993429964411e-44 -8.275778910444454e-45  0.
-4.378419635491879e-44 -1.5948780387831946e-44  0.
-8.617231954088094e-44 -2.6488978095514406e-44  0.
-1.4894673306261612e-43 -3.635131096283064e-44  0.
-2.2479611668131752e-43 -3.9581340522386294e-44  0.
-2.9373856462385064e-43 -2.938613177086701e-44  0.
-3.2614466950016756e-43 -3.2851721466949564e-45  0.
-2.970491527432415e-43 3.4228927498979305e-44  0.
-1.8670825114071407e-43 6.162044471128827e-44  0.
-1.0850388323439372e-43 1.3827868809146556e-43  0.
0.0 3.740207675666356e-45  0.
1.235223648788464e-44 8.61913296433743e-45  0.
2.0625368377794044e-44 -3.3189325989790155e-46  0.
2.1306569713216387e-44 1.007011327142488e-45  0.
1.7373237010750254e-44 -4.93940694728494e-45  0.
7.035373767495882e-45 -5.417356323453039e-45  0.
-1.7349569492944537e-44 -1.903096458974937e-44  0.
-1.1669976168122767e-43 -8.064211300993901e-44  0.
-6.8514760322870386e-43 -4.889778367495388e-43  0.
-2.6733387356750437e-42 -1.502991822524558e-42  0.
-8.769509302464286e-42 -4.603241932233305e-42  0.
-2.4012598757918597e-41 -1.0663705499098118e-41  0.
-5.790455041709797e-41 -2.3276456942487713e-41  0.
-1.2219786906746816e-40 -4.110280936849053e-41  0.
-2.265202774280484e-40 -6.333950117194747e-41  0.
-3.6384938087380225e-40 -7.416570360646367e-41  0.
-5.017625063723365e-40 -6.377949894667968e-41  0.
-5.810073101799365e-40 -1.60864325511498e-41  0.
-5.454211483107387e-40 5.538499597911444e-41  0.
-3.4853373552783122e-40 1.1365360364080898e-40  0.
-2.02891093644084e-40 2.6013917108780404e-40  0.
0.0 2.6555802202427496e-41  0.
2.683363976510685e-41 2.8230524762207315e-43  0.
4.0369491606557286e-41 1.3317514708914787e-41  0.
4.294836695562262e-41 -1.0785049336552666e-41  0.
2.99908146329998e-41 -2.1496018411210326e-42  0.
1.6615502223094593e-41 -1.1259814284760926e-41  0.
-7.081792903927955e-42 -1.2482607106907862e-41  0.
-7.098400623025311e-41 -5.161873512850448e-41  0.
-3.5131825592767855e-40 -2.2985254993070207e-40  0.
-2.2307838722628133e-39 -1.653637855090067e-39  0.
-8.394547949001317e-39 -4.5220362502278005e-39  0.
-2.634217808195579e-38 -1.3456983204903406e-38  0.
-6.831412070739225e-38 -2.8580678153151494e-38  0.
-1.563526845394127e-37 -5.959462137255952e-38  0.
-3.1080722659632322e-37 -9.50362721050568e-38  0.
-5.3739030889180325e-37 -1.3192435570646601e-37  0.
-7.87739045446867e-37 -1.1837446804753925e-37  0.
-9.587665545883643e-37 -5.415378057319954e-38  0.
-9.33161441601298e-37 8.717388851561584e-38  0.
-6.045222296992964e-37 1.91607466593924e-37  0.
-3.553827074417243e-37 4.57613497590448e-37  0.
0.0 -9.773578996973247e-39  0.
3.9234136816786846e-38 4.898433296116802e-38  0.
6.612010215739178e-38 -2.1893631866982994e-38  0.
5.57630318186438e-38 1.1369334899583846e-38  0.
4.3516407243042085e-38 -2.3538595400146916e-38  0.
1.7175027169385785e-38 -2.8690457779741122e-39  0.
2.9474678422908435e-40 -1.4050098252640386e-38  0.
-4.5147173932581174e-38 -3.1517876763125357e-38  0.
-2.2365808100736903e-37 -1.475499564649084e-37  0.
-9.78217474802262e-37 -6.10873738326915e-37  0.
-6.587833896923847e-36 -5.010029753662836e-36  0.
-2.3320079852566192e-35 -1.1762931928798453e-35  0.
-7.160226292402556e-35 -3.659175083929443e-35  0.
-1.8720067333487923e-34 -7.925824078579304e-35  0.
-4.11739513471671e-34 -1.4520422449706786e-34  0.
-7.662009477815676e-34 -2.1069666591442936e-34  0.
-1.1944144704091445e-33 -2.164677280918651e-34  0.
-1.5112328664764091e-33 -1.03892564933874e-34  0.
-1.5086612240146303e-33 1.2092716889153186e-34  0.
-9.818840528303624e-34 3.2046294251202514e-34  0.
-5.6421502166402695e-34 7.365817028114341e-34  0.
0.0 1.0365353010189037e-34  0.
3.4536701891846677e-35 -6.877486325086048e-35  0.
3.461210473413102e-35 6.844280224990565e-35  0.
5.466406623507887e-35 -4.819949892749418e-35  0.
2.0410298185204815e-35 1.3943279553674224e-35  0.
1.7799581941113838e-35 -1.6654216247396476e-35  0.
5.65366741160577e-37 -6.025273314492642e-37  0.
-1.982778233073018e-35 -1.9876434631322375e-35  0.
-1.4626011441145937e-34 -1.0694482679897245e-34  0.
-7.230187997630092e-34 -4.71864464422084e-34  0.
-2.756963401188085e-33 -1.5698739672935017e-33  0.
-1.8387782639665139e-32 -1.4097856420084917e-32  0.
-5.886305072799593e-32 -2.645638786968342e-32  0.
-1.8897877742670474e-31 -1.0403287357157618e-31  0.
-5.641352319178488e-31 -2.686419749102872e-31  0.
-1.1474198514733407e-30 -3.2617738236237824e-31  0.
-1.904249404718924e-30 -4.173151807233136e-31  0.
-2.4249648717885708e-30 -1.098208449752896e-31  0.
-2.3607593922011013e-30 1.9466450014265123e-31  0.
-1.4808750353860612e-30 5.327315052479071e-31  0.
-7.966519708479407e-31 1.0826301467882034e-30  0.
0.0 -2.9564487996637286e-31  0.
-1.1136489236577093e-31 1.9156007112262801e-31  0.
-3.6822901963374725e-32 -1.297358415715212e-31  0.
-5.830668935048956e-32 1.1494158412344378e-31  0.
2.952693643870462e-32 -2.82245331435852e-32  0.
7.01018326338432e-34 -7.013472186941014e-34  0.
1.6452878186480094e-35 -1.7401330004837366e-35  0.
-4.7604340042771097e-35 -8.760319630239478e-35  0.
-4.048651731857079e-32 -4.064126525350684e-32  0.
-4.84424649569273e-31 -4.040644187930415e-31  0.
-2.378013565048626e-30 -1.4781458753001501e-30  0.
-7.411064702995643e-30 -3.647288950636114e-30  0.
-6.270989455749688e-29 -5.274667932905671e-29  0.
-1.7539842390567452e-28 -6.022200592316026e-29  0.
-5.317942359560495e-28 -2.9213199206295393e-28  0.
-1.617191302498023e-27 -8.572483616281959e-28  0.
-2.9449256788236123e-27 -3.5830648458015467e-28  0.
-3.5619428368020784e-27 -2.580394133519057e-28  0.
-3.3833259997575854e-27 3.6760808668834398e-28  0.
-2.0736911150676e-27 5.669201672034789e-28  0.
-1.3703932119013976e-27 1.899473822009562e-27  0.
0.0 2.5953198566330238e-28  0.
-3.1620632522331165e-28 -5.173792944843574e-28  0.
-3.285446725935656e-28 4.180885265646901e-28  0.
3.1758365634341403e-29 -2.982399923719644e-29  0.
6.042467754719969e-31 -6.3805292392674805e-31  0.
1.1909848912649562e-32 -1.3001129352388214e-32  0.
1.3690073472651977e-34 -1.7231076143078716e-34  0.
-2.232561562302601e-34 -3.5647528185498633e-34  0.
-8.900660303602612e-32 -1.6910123901555344e-31  0.
-8.138067001587059e-29 -8.288760421907561e-29  0.
-1.3538062983166731e-27 -1.2017576792604623e-27  0.
-5.82899728683059e-27 -3.5189479874873514e-27  0.
-1.5368847206775596e-26 -5.6627111778074925e-27  0.
-2.352713577120385e-25 -1.8136352209505222e-25  0.
-5.289645113400443e-25 -5.106646245618775e-26  0.
-1.0408162958527753e-24 -4.786820398569274e-25  0.
-3.2831362365561464e-24 -1.1728522043982024e-24  0.
-4.0980635210652326e-24 5.032468463802896e-25  0.
-2.8012496324275946e-24 2.189224671157433e-25  0.
-3.0063744745081085e-24 -1.0298868403844417e-24  0.
-5.057774012210769e-24 4.404296459203906e-24  0.
0.0 1.824018767354916e-20  0.
-7.693520861965661e-25 1.824179101575757e-20  0.
1.797846641759001e-26 1.8241226005514983e-20  0.
3.4678033351113267e-28 1.8241243788610942e-20  0.
5.85009798899106e-30 1.8241244175796362e-20  0.
5.940091047558688e-32 1.824124418266384e-20  0.
-4.391116206779737e-34 1.8241244182748948e-20  0.
8.968122077314719e-34 1.824124418274911e-20  0.
-3.10726756339981e-31 1.8241244182176553e-20  0.
-1.603199970891037e-28 1.8241243864015336e-20  0.
-2.362115176154254e-25 1.824103875047298e-20  0.
-2.4163819926906428e-24 1.82394267966286e-20  0.
-9.346976361171606e-24 1.823798210103373e-20  0.
-1.6844841007484852e-23 1.823675085842683e-20  0.
-1.7464512355485375e-22 1.783833591676778e-20  0.
-2.6885457388420776e-22 1.7595300149240075e-20  0.
-6.977850085615235e-22 1.6558408436459446e-20  0.
-1.0373890469691243e-21 1.4070677747841447e-20  0.
-1.0732788880352837e-21 1.1759053769784318e-20  0.
-1.5394291462564328e-21 1.0381185849017679e-20  0.
-5.574185382448879e-21 1.047443095944328e-20  0.
0.0 1.8105526108015672e-18  0.
6.390409277966653e-24 1.8097624098641374e-18  0.
1.1233271992344023e-25 1.8097641454613453e-18  0.
1.7414608275293282e-27 1.809764287435796e-18  0.
1.6348096506226884e-29 1.809764289846546e-18  0.
-1.5025762604755848e-31 1.8097642898758363e-18  0.
4.8088254418697765e-33 1.809764289875818e-18  0.
-2.805414399999827e-33 1.80976428987582e-18  0.
2.5371943974141018e-30 1.809764289877446e-18  0.
-3.688655734366423e-28 1.809764289011326e-18  0.
-2.2302107804594166e-25 1.8097634662404814e-18  0.
-1.9219362789370211e-22 1.8093231396606107e-18  0.
-1.208162588730466e-21 1.8076139226543857e-18  0.
-2.849517505062445e-21 1.8022932888621777e-18  0.
-8.120532914285782e-21 1.792177436140409e-18  0.
-2.1177921119478223e-20 1.7648403243850028e-18  0.
-4.314180154857633e-20 1.7033783839112494e-18  0.
-7.579236778469353e-20 1.5882291902298542e-18  0.
-1.1793149956565354e-19 1.3989285982738432e-18  0.
-1.691511392288086e-19 1.1306769122312476e-18  0.
-5.960698237409202e-19 1.157204078651709e-18  0.
0.0 1.3583973310071157e-16  0.
1.782469784879897e-23 1.3584077213392314e-16  0.
2.399000557238529e-25 1.358407984498013e-16  0.
2.031159523278862e-27 1.3584079892110759e-16  0.
-3.416870476715112e-29 1.3584079892741635e-16  0.
1.4706148188345784e-30 1.3584079892742395e-16  0.
7.870316545028149e-33 1.3584079892742523e-16  0.
-6.111841071227881e-33 1.3584079892742523e-16  0.
-9.14692218505871e-30 1.3584079892742064e-16  0.
1.825861705960083e-27 1.358407989283477e-16  0.
-7.660915903409554e-25 1.3584079720178448e-16  0.
-7.139607144855842e-22 1.3584030945300735e-16  0.
-2.708747979779361e-20 1.358147345003399e-16  0.
-1.3108970437436476e-19 1.3566896727204566e-16  0.
-4.81491527551319e-19 1.350779775175226e-16  0.
-1.2817000012716273e-18 1.3337364417044856e-16  0.
-2.8836573597288975e-18 1.2933070606946203e-16  0.
-5.345842991424829e-18 1.2133407046132477e-16  0.
-8.719618397012165e-18 1.0768567584402851e-16  0.
-1.3003909617730264e-17 8.777826561078535e-17  0.
-4.652577103783308e-17 9.014930787752947e-17  0.
0.0 8.283809393901702e-15  0.
-9.216037553714996e-24 8.283810597277536e-15  0.
-9.99425050808899e-26 8.283810643297971e-15  0.
-4.410521110285237e-27 8.283810643897554e-15  0.
3.2498610209310593e-28 8.283810643900441e-15  0.
2.9458220190668522e-30 8.283810643900736e-15  0.
1.9484377238364062e-30 8.283810643900736e-15  0.
1.7014710242526454e-30 8.283810643900738e-15  0.
-2.410250970661224e-29 8.283810643900695e-15  0.
-2.3493997020379798e-26 8.28381064387818e-15  0.
-2.809077189489702e-24 8.283810636935778e-15  0.
-3.6943163952496595e-21 8.283807979644236e-15  0.
-1.9880238301837744e-19 8.283659398877099e-15  0.
-4.164553735348825e-18 8.279600205577559e-15  0.
-1.80847791194202e-17 8.258556247877753e-15  0.
-6.177606026937007e-17 8.182162984908042e-15  0.
-1.4958275465420667e-16 7.97901532448461e-15  0.
-3.0710233415382803e-16 7.538588930936276e-15  0.
-5.201868651364213e-16 6.74083332789227e-15  0.
-8.127701567415659e-16 5.533596783397399e-15  0.
-2.9404310222600697e-15 5.707600315189129e-15  0.
0.0 4.0095912579923463e-13  0.
-5.691182995834492e-23 4.0095912485725746e-13  0.
-2.224832095285532e-25 4.009591248345035e-13  0.
4.333032726382552e-26 4.009591248348257e-13  0.
1.8529609439584105e-29 4.0095912483486583e-13  0.
1.3571363199247974e-28 4.009591248348661e-13  0.
1.9140814664894475e-29 4.009591248348663e-13  0.
2.851207656252834e-29 4.0095912483486634e-13  0.
-5.819187243978924e-29 4.0095912483486603e-13  0.
-4.943961840973494e-26 4.0095912483477485e-13  0.
-7.866194101511447e-23 4.0095912475792935e-13  0.
-1.507827607946351e-20 4.00959117082451e-13  0.
-8.748607408069468e-19 4.009585805192648e-13  0.
-2.8625262167130655e-17 4.0093749979808874e-13  0.
-5.086932564679065e-16 4.00443479515034e-13  0.
-1.9716065593883984e-15 3.9811942727789485e-13  0.
-6.131964036259704e-15 3.9043041257258153e-13  0.
-1.3358008416247748e-14 3.7183981522048046e-13  0.
-2.4873145352519908e-14 3.3533601617551797e-13  0.
-4.0008014266249153e-14 2.774934951283357e-13  0.
-1.4842776408960034e-13 2.8798001335145467e-13  0.
0.0 1.495687222968158e-11  0.
8.644907341705281e-23 1.4956872226769177e-11  0.
1.6597213939629933e-24 1.4956872226709917e-11  0.
-6.707867086885496e-26 1.4956872226711756e-11  0.
2.1398460614896622e-26 1.495687222671172e-11  0.
2.1019243852803796e-27 1.495687222671174e-11  0.
2.7750957259664416e-27 1.495687222671174e-11  0.
2.96885129564969e-27 1.4956872226711746e-11  0.
2.534121719010772e-27 1.495687222671174e-11  0.
-1.169905738466055e-25 1.495687222671147e-11  0.
-1.4385066953741614e-22 1.4956872226575752e-11  0.
-4.6597590919106325e-20 1.4956872203683403e-11  0.
-2.7725142069666805e-18 1.4956870810195343e-11  0.
-1.162325344033522e-16 1.4956802387348833e-11  0.
-3.2390559082219803e-15 1.4954478443014785e-11  0.
-4.795540708388552e-14 1.4908088346073994e-11  0.
-1.6342994729243653e-13 1.4712497535168386e-11  0.
-4.560671366173725e-13 1.4131184843512786e-11  0.
-8.813901625712116e-13 1.2873056118720015e-11  0.
-1.5506829720722206e-12 1.0754012001685918e-11  0.
-5.768063464577642e-12 1.1225896657370272e-11  0.
0.0 4.1367227634201145e-10  0.
-2.7183831256337263e-22 4.1367227634578923e-10  0.
-8.139990007840427e-24 4.136722763457601e-10  0.
1.660790629905226e-24 4.136722763457474e-10  0.
-1.5534730167521143e-25 4.1367227634574937e-10  0.
6.368092907206638e-27 4.136722763457492e-10  0.
-3.2033467929912923e-27 4.136722763457492e-10  0.
-6.477607747713173e-27 4.136722763457492e-10  0.
-4.635758922445242e-27 4.136722763457491e-10  0.
-3.377676144747559e-25 4.136722763457483e-10  0.
-5.70314441235181e-22 4.136722763453212e-10  0.
-1.0579882124454165e-19 4.1367227630775485e-10  0.
-6.864403004004656e-18 4.1367227354628273e-10  0.
-3.38332586941943e-16 4.1367211578223414e-10  0.
-1.2044893379302496e-14 4.1366541175385363e-10  0.
-2.805238200067746e-13 4.1347042741888415e-10  0.
-3.3552652011621885e-12 4.102416619008622e-10  0.
-9.876447003372061e-12 3.982142687729519e-10  0.
-2.4271594513760718e-11 3.6682060574208155e-10  0.
-4.344739122964882e-11 3.098019093991803e-10  0.
-1.688295466538236e-10 3.2670423462818466e-10  0.
0.0 8.050185838938358e-09  0.
-4.348276777286028e-22 8.050185838936132e-09  0.
3.5799755505178697e-23 8.050185838936323e-09  0.
-1.900785376990475e-23 8.050185838936423e-09  0.
8.541513429078685e-25 8.050185838936405e-09  0.
5.7618098057520015e-25 8.050185838936405e-09  0.
6.902421449193287e-25 8.050185838936405e-09  0.
6.294154747601296e-25 8.050185838936405e-09  0.
3.5650590046350466e-25 8.050185838936405e-09  0.
1.2070496747827868e-24 8.050185838936403e-09  0.
-1.6315272801543548e-21 8.050185838935774e-09  0.
-1.9673590591216293e-19 8.050185838879091e-09  0.
-1.3884236006348145e-17 8.050185834531673e-09  0.
-7.641999470001118e-16 8.05018555939e-09  0.
-3.185862772502964e-14 8.050172023081611e-09  0.
-9.434305506997084e-13 8.049684272063086e-09  0.
-1.7852848697380388e-11 8.03775319629345e-09  0.
-1.6542914399397656e-10 7.879808099231501e-09  0.
-4.1244801613927524e-10 7.371438621595299e-09  0.
-9.255350780693171e-10 6.304381199336705e-09  0.
-3.4428828340982324e-09 6.69087329827132e-09  0.
0.0 1.024003082479469e-07  0.
9.721298572275865e-22 1.0240030824795339e-07  0.
-8.048474077731495e-22 1.0240030824795171e-07  0.
5.081200523654791e-23 1.0240030824795128e-07  0.
3.620185170764858e-23 1.0240030824795124e-07  0.
3.7703287201730955e-23 1.0240030824795124e-07  0.
3.4370226596525593e-23 1.0240030824795121e-07  0.
3.538717304785658e-23 1.0240030824795125e-07  0.
3.0575541132416936e-23 1.0240030824795121e-07  0.
3.341412821328787e-23 1.0240030824795124e-07  0.
-2.4667721344907593e-21 1.0240030824795077e-07  0.
-3.1816697227355515e-19 1.024003082478859e-07  0.
-2.3554090817483003e-17 1.0240030824244225e-07  0.
-1.3996579250546857e-15 1.0240030787226219e-07  0.
-6.471803666747818e-14 1.0240028790516065e-07  0.
-2.229825844170346e-12 1.0239945619760008e-07  0.
-5.3398605548142613e-11 1.0237456354790962e-07  0.
-7.900460985620834e-10 1.0187352141628719e-07  0.
-5.367891639316987e-09 9.686784232490708e-08  0.
-1.1946864935286245e-08 8.431347443437213e-08  0.
-4.8076673874162505e-08 9.058969264453048e-08  0.
0.0 7.649123569420706e-07  0.
1.9506099898246224e-21 7.649123569420608e-07  0.
-9.226210003737466e-22 7.649123569420638e-07  0.
-1.2479279980996713e-24 7.649123569420644e-07  0.
-3.110638847343754e-23 7.649123569420642e-07  0.
-4.829282748673995e-23 7.649123569420644e-07  0.
-4.0485048786787445e-23 7.649123569420644e-07  0.
-5.452793562148865e-23 7.649123569420644e-07  0.
-6.404294461695e-23 7.649123569420644e-07  0.
1.7215251166712486e-23 7.649123569420644e-07  0.
-3.516480741048606e-21 7.649123569420637e-07  0.
-4.439653264045442e-19 7.649123569420035e-07  0.
-3.408048164556641e-17 7.649123569367864e-07  0.
-2.129129159141042e-15 7.649123565659745e-07  0.
-1.0526762264570025e-13 7.64912335206293e-07  0.
-3.984024391337948e-12 7.649113712178946e-07  0.
-1.0999676995652222e-10 7.648780010560245e-07  0.
-2.054616075080446e-09 7.640693899976388e-07  0.
-2.267594908331733e-08 7.511720740966225e-07  0.
-1.1168642123162814e-07 6.696083265208419e-07  0.
-3.7575861656267566e-07 7.074992041066507e-07  0.
0.0 2.905867801842691e-06  0.
6.299612185775445e-22 2.9058678018426927e-06  0.
-6.240117666287095e-23 2.905867801842692e-06  0.
2.7037643832511606e-22 2.9058678018426923e-06  0.
-1.6979941262564203e-22 2.9058678018426923e-06  0.
5.08485877120421e-24 2.905867801842692e-06  0.
-1.796323687369843e-22 2.905867801842692e-06  0.
1.2936893386615643e-22 2.9058678018426927e-06  0.
-2.8416216158833406e-22 2.905867801842692e-06  0.
2.9034209210523898e-22 2.905867801842692e-06  0.
-4.562951398609486e-21 2.9058678018426915e-06  0.
-5.380122524147425e-19 2.905867801842655e-06  0.
-4.239437584970307e-17 2.905867801839421e-06  0.
-2.724918359388176e-15 2.905867801603344e-06  0.
-1.3993112756764949e-13 2.9058677875650817e-06  0.
-5.581104602837628e-12 2.9058671171169118e-06  0.
-1.6680303565783708e-10 2.9058424454683193e-06  0.
-3.5446005360598065e-09 2.9051535760880528e-06  0.
-4.9822877676073766e-08 2.8925549984019083e-06  0.
-4.020992692916501e-07 2.7631290793341143e-06  0.
-1.5685749202188e-06 2.821129402949268e-06  0.
0.0 5.449999999999995e-06  0.
-7.75578294397906e-22 5.449999999999995e-06  0.
-1.0087079630955307e-22 5.449999999999995e-06  0.
1.2012853457075402e-21 5.449999999999995e-06  0.
-1.1488795349241854e-21 5.449999999999995e-06  0.
4.7399768517293894e-23 5.449999999999995e-06  0.
-4.627078179059204e-22 5.449999999999995e-06  0.
4.2468482512171615e-22 5.449999999999995e-06  0.
-3.301456213919953e-22 5.449999999999995e-06  0.
2.0383620095275866e-22 5.449999999999995e-06  0.
-5.457892513288788e-21 5.449999999999995e-06  0.
-5.72640740129758e-19 5.449999999999995e-06  0.
-4.556499459913764e-17 5.449999999999995e-06  0.
-2.95618877839938e-15 5.449999999999995e-06  0.
-1.5365353855789153e-13 5.449999999999995e-06  0.
-6.236259141176764e-12 5.449999999999995e-06  0.
-1.9108989186669155e-10 5.449999999999995e-06  0.
-4.246870799257576e-09 5.449999999999995e-06  0.
-6.419948862259062e-08 5.449999999999995e-06  0.
-6.022505634282695e-07 5.449999999999995e-06  0.
-2.473744087370256e-06 5.449999999999995e-06  0.
</DataArray>
<DataArray type="Float64" Name="sigma_xx" NumberOfComponents="1" format="ascii" >
0.0 
0.0 
0.0 
0.0 
0.0 
0.0 
0.0 
0.0 
0.0 
0.0 
0.0 
0.0 
0.0 
0.0 
0.0 
0.0 
0.0 
0.0 
0.0 
0.0 
0.0 
0.0 
0.0 
0.0 
0.0 
0.0 
0.0 
0.0 
0.0 
0.0 
0.0 
0.0 
0.0 
0.0 
0.0 
0.0 
0.0 
0.0 
0.0 
0.0 
0.0 
0.0 
0.0 
0.0 
0.0 
0.0 
0.0 
0.0 
0.0 
0.0 
0.0 
0.0 
0.0 
0.0 
0.0 
0.0 
0.0 
0.0 
0.0 
0.0 
0.0 
0.0 
0.0 
0.0 
0.0 
0.0 
0.0 
0.0 
0.0 
0.0 
0.0 
0.0 
0.0 
0.0 
0.0 
0.0 
0.0 
0.0 
0.0 
0.0 
0.0 
0.0 
0.0 
0.0 
0.0 
0.0 
0.0 
0.0 
0.0 
0.0 
0.0 
0.0 
0.0 
0.0 
0.0 
0.0 
0.0 
0.0 
0.0 
0.0 
0.0 
0.0 
0.0 
0.0 
0.0 
0.0 
0.0 
0.0 
0.0 
0.0 
0.0 
0.0 
0.0 
0.0 
0.0 
0.0 
0.0 
0.0 
0.0 
0.0 
0.0 
0.0 
0.0 
0.0 
0.0 
0.0 
0.0 
0.0 
0.0 
0.0 
0.0 
0.0 
0.0 
0.0 
0.0 
0.0 
0.0 
0.0 
0.0 
0.0 
0.0 
0.0 
0.0 
0.0 
0.0 
0.0 
0.0 
0.0 
0.0 
0.0 
0.0 
0.0 
0.0 
0.0 
0.0 
0.0 
0.0 
0.0 
0.0 
0.0 
0.0 
0.0 
0.0 
0.0 
0.0 
0.0 
0.0 
0.0 
0.0 
0.0 
0.0 
0.0 
0.0 
0.0 
0.0 
0.0 
0.0 
0.0 
0.0 
0.0 
0.0 
0.0 
0.0 
0.0 
0.0 
0.0 
0.0 
0.0 
0.0 
4.9737991503207e-06 
4.9737991503207e-06 
4.9737991503207e-06 
4.9737991503207e-06 
4.9737991503207e-06 
4.9737991503207e-06 
4.9737991503207e-06 
4.9737991503207e-06 
4.9737991503207e-06 
4.9737991503207e-06 
4.9737991503207e-06 
4.9737991503207e-06 
4.9737991503207e-06 
4.9737991503207e-06 
4.9737991503207e-06 
4.8239190419963035e-06 
4.590772206825021e-06 
4.279909759929977e-06 
3.741451592986776e-06 
2.764455331316639e-06 
2.098321516541545e-06 
0.0003801847725526385 
0.0003801847725526385 
0.0003801847725526385 
0.0003801847725526385 
0.0003801847725526385 
0.0003801847725526385 
0.0003801847725526385 
0.0003801847725526385 
0.0003801847725526385 
0.0003801847725526385 
0.0003801847725526385 
0.0003801847725526385 
0.00037996272794771347 
0.0003789135671894427 
0.0003759492717136935 
0.00036854408413944373 
0.0003537947712572985 
0.00032800984151037927 
0.0002869371407143716 
0.0002110644992114884 
0.00015996093338799245 
0.023189561382253025 
0.023189561382253025 
0.023189561382253025 
0.023189561382253025 
0.023189561382253025 
0.023189561382253025 
0.023189561382253025 
0.023189561382253025 
0.023189561382253025 
0.023189561382253025 
0.023189561382253025 
0.0231891950086549 
0.023180751762552625 
0.02314147762305651 
0.023002361126955854 
0.02263914056221949 
0.02184060710064272 
0.02035629442787012 
0.017906415239465893 
0.01321244225138684 
0.010027267904888499 
1.1223052931441653 
1.1223052931441653 
1.1223052931441653 
1.1223052931441653 
1.1223052931441653 
1.1223052931441653 
1.1223052931441653 
1.1223052931441653 
1.1223052931441653 
1.1223052931441653 
1.1223052931441653 
1.1223032447826848 
1.122241166662263 
1.1212070327726305 
1.116906006570772 
1.1029517965610576 
1.0697694452499458 
1.0029419017509862 
0.8877370227811097 
0.6575880950876465 
0.4983715662376651 
41.85604836060007 
41.85604836060007 
41.85604836060007 
41.85604836060007 
41.85604836060007 
41.85604836060007 
41.85604836060007 
41.85604836060007 
41.85604836060007 
41.85604836060007 
41.856048288435574 
41.856041366195015 
41.85576971682535 
41.84874654589164 
41.75129078021199 
41.39234651145961 
40.34234481475883 
38.09013223721179 
33.93038150445447 
25.23135984033863 
19.221631153421008 
1157.160134157564 
1157.160134157564 
1157.160134157564 
1157.160134157564 
1157.160134157564 
1157.160134157564 
1157.160134157564 
1157.160134157564 
1157.160134157564 
1157.160134157564 
1157.1601337911902 
1157.1601151283412 
1157.1592547998662 
1157.1307695412697 
1156.5206922803382 
1149.7130214699332 
1127.8818809745678 
1071.3330690137464 
961.7136426276481 
717.5742577525398 
542.1113910220041 
22498.804837689502 
22498.804837689502 
22498.804837689502 
22498.804837689502 
22498.804837689502 
22498.804837689502 
22498.804837689502 
22498.804837689502 
22498.804837689502 
22498.804837689502 
22498.804836962307 
22498.804795817443 
22498.80266304571 
22498.719642066728 
22496.45560865598 
22457.56314600277 
22123.424709094554 
21210.93678457974 
19136.79485251173 
14316.186078899833 
10954.660391881971 
285587.66945387935 
285587.66945387935 
285587.66945387935 
285587.66945387935 
285587.66945387935 
285587.66945387935 
285587.66945387935 
285587.66945387935 
285587.66945387935 
285587.66945387935 
285587.66945272475 
285587.66937609157 
285587.66505423764 
285587.47716656 
285581.4831136837 
285451.11311381037 
283733.6944321977 
273053.60259694816 
248435.03107074276 
184773.3692526609 
136643.04621884832 
2120467.9867377058 
2120467.9867377058 
2120467.9867377058 
2120467.9867377058 
2120467.9867377058 
2120467.9867377058 
2120467.9867377058 
2120467.9867377058 
2120467.9867377058 
2120467.9867377058 
2120467.9867359735 
2120467.986613172 
2120467.979269813 
2120467.634648298 
2120455.4406590797 
2120147.2526923055 
2115037.815564035 
2066693.5527741788 
1863636.7227443932 
1367089.1496087825 
1030067.2494645886 
7863772.296874091 
7863772.296874091 
7863772.296874091 
7863772.296874091 
7863772.296874091 
7863772.296874091 
7863772.296874091 
7863772.296874091 
7863772.296874091 
7863772.296874091 
7863772.296871937 
7863772.29670153 
7863772.286077705 
7863771.761768604 
7863751.921633325 
7863201.113842489 
7852685.380464919 
7727929.316981804 
6947841.358272575 
4687056.6043130485 
3091587.9974481184 
13149203.037366591 
13149203.037366593 
13149203.037366593 
13149203.037366593 
13149203.037366593 
13149203.037366593 
13149203.037366593 
13149203.037366593 
13149203.037366593 
13149203.037366593 
13149203.037364006 
13149203.037157066 
13149203.023945972 
13149202.35298302 
13149175.978010798 
13148404.205755055 
13132465.031551266 
12918439.261963245 
11280835.43924068 
5803043.127331384 
1764021.9875206898 
14283386.918074554 
14283386.918074554 
14283386.918074554 
14283386.918074554 
14283386.918074554 
14283386.918074554 
14283386.918074554 
14283386.918074554 
14283386.918074554 
14283386.918074554 
14283386.918071669 
14283386.917850822 
14283386.903652802 
14283386.175751463 
14283357.211710807 
14282494.78657146 
14264237.218226157 
14008653.212194273 
11932807.828238681 
4623851.003942983 
-847421.0491036713 
</DataArray>
<DataArray type="Float64" Name="sigma_yy" NumberOfComponents="1" format="ascii" >
0.0 
0.0 
0.0 
0.0 
0.0 
0.0 
0.0 
0.0 
0.0 
0.0 
0.0 
0.0 
0.0 
0.0 
0.0 
0.0 
0.0 
0.0 
0.0 
0.0 
0.0 
0.0 
0.0 
0.0 
0.0 
0.0 
0.0 
0.0 
0.0 
0.0 
0.0 
0.0 
0.0 
0.0 
0.0 
0.0 
0.0 
0.0 
0.0 
0.0 
0.0 
0.0 
0.0 
0.0 
0.0 
0.0 
0.0 
0.0 
0.0 
0.0 
0.0 
0.0 
0.0 
0.0 
0.0 
0.0 
0.0 
0.0 
0.0 
0.0 
0.0 
0.0 
0.0 
0.0 
0.0 
0.0 
0.0 
0.0 
0.0 
0.0 
0.0 
0.0 
0.0 
0.0 
0.0 
0.0 
0.0 
0.0 
0.0 
0.0 
0.0 
0.0 
0.0 
0.0 
0.0 
0.0 
0.0 
0.0 
0.0 
0.0 
0.0 
0.0 
0.0 
0.0 
0.0 
0.0 
0.0 
0.0 
0.0 
0.0 
0.0 
0.0 
0.0 
0.0 
0.0 
0.0 
0.0 
0.0 
0.0 
0.0 
0.0 
0.0 
0.0 
0.0 
0.0 
0.0 
0.0 
0.0 
0.0 
0.0 
0.0 
0.0 
0.0 
0.0 
0.0 
0.0 
0.0 
0.0 
0.0 
0.0 
0.0 
0.0 
0.0 
0.0 
0.0 
0.0 
0.0 
0.0 
0.0 
0.0 
0.0 
0.0 
0.0 
0.0 
0.0 
0.0 
0.0 
0.0 
0.0 
0.0 
0.0 
0.0 
0.0 
0.0 
0.0 
0.0 
0.0 
0.0 
0.0 
0.0 
0.0 
0.0 
0.0 
0.0 
0.0 
0.0 
0.0 
0.0 
0.0 
0.0 
0.0 
0.0 
0.0 
0.0 
0.0 
0.0 
0.0 
0.0 
0.0 
0.0 
0.0 
0.0 
0.0 
0.0 
0.0 
0.0 
0.0 
0.0 
0.0 
9.2370555648813e-06 
9.2370555648813e-06 
9.2370555648813e-06 
9.2370555648813e-06 
9.2370555648813e-06 
9.2370555648813e-06 
9.2370555648813e-06 
9.2370555648813e-06 
9.2370555648813e-06 
9.2370555648813e-06 
9.2370555648813e-06 
9.2370555648813e-06 
9.2370555648813e-06 
9.2370555648813e-06 
9.2370555648813e-06 
9.05386876581815e-06 
8.620881786214339e-06 
8.043565813409257e-06 
7.138734048339755e-06 
5.89528426075958e-06 
5.2291504459844865e-06 
0.0007060574347406144 
0.0007060574347406144 
0.0007060574347406144 
0.0007060574347406144 
0.0007060574347406144 
0.0007060574347406144 
0.0007060574347406144 
0.0007060574347406144 
0.0007060574347406144 
0.0007060574347406144 
0.0007060574347406144 
0.0007060574347406144 
0.0007058353901356894 
0.0007045530825422474 
0.0007001899060554705 
0.0006887213022110926 
0.0006642797423239698 
0.0006193434654022666 
0.0005463962615692707 
0.0004583999846374808 
0.00041469050415798836 