<?xml version="1.0"?>
<VTKFile type="UnstructuredGrid" version="0.1" byte_order="LittleEndian" compressor="vtkZLibDataCompressor">
<UnstructuredGrid>
<Piece NumberOfPoints="441" NumberOfCells="400">
<PointData>
<DataArray type="Float64" Name="displacement" NumberOfComponents="3" format="ascii" >
0.0 1.4671068115302216e-14  0.
5.275393576465324e-23 1.4671051539877372e-14  0.
-4.3246722149371524e-21 1.4671048010060557e-14  0.
-3.0365659092993894e-20 1.4671019576269538e-14  0.
-1.0616392793268824e-19 1.467088663348591e-14  0.
-3.4035282004122614e-19 1.467050660562457e-14  0.
-1.0122053679962282e-18 1.466934072536673e-14  0.
-2.732417742788141e-18 1.4666040636883096e-14  0.
-6.7368398721888216e-18 1.465771622743954e-14  0.
-1.5246548546596194e-17 1.463822196689523e-14  0.
-3.18440864757683e-17 1.459637539570613e-14  0.
-6.172439438827472e-17 1.4512905866971177e-14  0.
-1.1152404865834247e-16 1.435793275821062e-14  0.
-1.8841043185042554e-16 1.4089073019227665e-14  0.
-2.9864853871337146e-16 1.3651610587398812e-14  0.
-4.451951186680196e-16 1.2982474324921673e-14  0.
-6.255414420394564e-16 1.2017995691789398e-14  0.
-8.300957577399473e-16 1.0705634812504404e-14  0.
-1.0453352081964271e-15 9.019959765571015e-15  0.
-1.3322806279409061e-15 7.0428893653262055e-15  0.
-3.427003101103748e-15 7.082847014834291e-15  0.
0.0 9.394350068738614e-14  0.
-8.489930575198948e-21 9.394349795156178e-14  0.
-2.0709527136923775e-20 9.394347956421345e-14  0.
-1.0283229285937513e-19 9.394338858185502e-14  0.
-4.191895044081528e-19 9.394298597381254e-14  0.
-1.5177502173396328e-18 9.394145537519474e-14  0.
-4.841495313816391e-18 9.393631131187129e-14  0.
-1.3893099945577095e-17 9.392099046146219e-14  0.
-3.599781887567173e-17 9.387973828963842e-14  0.
-8.498511242738712e-17 9.377885357882543e-14  0.
-1.8415528409431864e-16 9.355278733608118e-14  0.
-3.6843678165163395e-16 9.308592557086209e-14  0.
-6.839283471974884e-16 9.219245576340789e-14  0.
-1.1827863782634863e-15 9.060103065435882e-14  0.
-1.912350007370128e-15 8.79532723163539e-14  0.
-2.8989489641545952e-15 8.382558668502958e-14  0.
-4.130414759915323e-15 7.778085126117923e-14  0.
-5.543305538613902e-15 6.944814678489878e-14  0.
-7.04342801390839e-15 5.86402481223411e-14  0.
-9.078677171221935e-15 4.604735431502412e-14  0.
-2.5576915333411402e-14 4.734123068967434e-14  0.
0.0 1.0614579192113394e-12  0.
-2.0647243107929456e-20 1.0614579253659961e-12  0.
-1.1453819785131636e-19 1.0614578305767505e-12  0.
-6.18637452511502e-19 1.0614573150027794e-12  0.
-2.8320878252137427e-18 1.061454802134011e-12  0.
-1.1236242504151184e-17 1.0614441873601257e-12  0.
-3.883127329582731e-17 1.0614056024819254e-12  0.
-1.1880453819267044e-16 1.0612819593260408e-12  0.
-3.253049807905563e-16 1.0609288204321864e-12  0.
-8.054965703465616e-16 1.0600195148634094e-12  0.
-1.818124533593172e-15 1.057890259161174e-12  0.
-3.767209250899438e-15 1.0533227551923962e-12  0.
-7.205686049662071e-15 1.0442926850937172e-12  0.
-1.2784557883178431e-14 1.0277553447037405e-12  0.
-2.1123059480696937e-14 9.995821293518813e-13  0.
-3.260985616355867e-14 9.547752339238997e-13  0.
-4.716904380794309e-14 8.880529113604943e-13  0.
-6.408672950674012e-14 7.948077150763733e-13  0.
-8.224061402916415e-14 6.725744718747605e-13  0.
-1.0698120672398312e-13 5.293927581602346e-13  0.
-2.9996217007385244e-13 5.472327570246241e-13  0.
0.0 1.0677052787029981e-11  0.
-7.338299169551045e-20 1.0677052743349585e-11  0.
-5.191882090475491e-19 1.0677052379645266e-11  0.
-3.1795242696136313e-18 1.0677049912906351e-11  0.
-1.630861018213547e-17 1.0677036409168185e-11  0.
-7.10846972038478e-17 1.0676973679038759e-11  0.
-2.670441748956422e-16 1.06767242098318e-11  0.
-8.768393942582613e-16 1.0675861603759026e-11  0.
-2.551900646358804e-15 1.06732301222882e-11  0.
-6.65515046081375e-15 1.066606319781927e-11  0.
-1.5705868379052085e-14 1.0648455023584157e-11  0.
-3.380033548767251e-14 1.060910162337635e-11  0.
-6.678063852297966e-14 1.0528523557556363e-11  0.
-1.217830215791494e-13 1.037648737438165e-11  0.
-2.059439576704584e-13 1.0110841072802189e-11  0.
-3.241698386865492e-13 9.6792675046366e-12  0.
-4.764963711146266e-13 9.025118110127671e-12  0.
-6.559007659194876e-13 8.097607296197016e-12  0.
-8.509235091900223e-13 6.868266026514833e-12  0.
-1.1213006820892334e-12 5.424438329572845e-12  0.
-3.1050805733749543e-12 5.637950960221817e-12  0.
0.0 9.428632690802448e-11  0.
-2.6590731897266464e-19 9.428632675803068e-11  0.
-2.090422477146096e-18 9.428632537579725e-11  0.
-1.403063079645174e-17 9.428631540973716e-11  0.
-7.975874013854993e-17 9.428625462237907e-11  0.
-3.8346852798900153e-16 9.42859415312875e-11  0.
-1.571306045523324e-15 9.428457436088572e-11  0.
-5.570361036373492e-15 9.42794392002208e-11  0.
-1.730710981042533e-14 9.42626219225005e-11  0.
-4.7751581348764776e-14 9.421393716789919e-11  0.
-1.1821005329944823e-13 9.408794465672381e-11  0.
-2.650117526356391e-13 9.37935822961856e-11  0.
-5.420124716570082e-13 9.31677166979918e-11  0.
-1.017843968295546e-12 9.19484593079314e-11  0.
-1.7640886537765695e-12 8.97598988132543e-11  0.
-2.834419492500274e-12 8.612308415217491e-11  0.
-4.237212553741527e-12 8.050646606446629e-11  0.
-5.913216748914197e-12 7.242050027615122e-11  0.
-7.760894818317143e-12 6.158026490000217e-11  0.
-1.0373794534351234e-11 4.8831310009852756e-11  0.
-2.8288199618658268e-11 5.108636758079722e-11  0.
0.0 7.237775788939173e-10  0.
-8.546831266704256e-19 7.237775784568392e-10  0.
-7.312288001000888e-18 7.237775740441008e-10  0.
-5.3564601997310325e-17 7.237775392484468e-10  0.
-3.3393295511492515e-16 7.237773063366533e-10  0.
-1.7631346875306996e-15 7.237759855796296e-10  0.
-7.900698691960689e-15 7.237696436627698e-10  0.
-3.031318954607319e-14 7.237437065485442e-10  0.
-1.0097479001571271e-13 7.236521130002151e-10  0.
-2.9564985849784744e-13 7.233692308227631e-10  0.
-7.702207333298336e-13 7.225953116644716e-10  0.
-1.8028638988722494e-12 7.206998042549043e-10  0.
-3.824960822426184e-12 7.165048535304758e-10  0.
-7.407092372254781e-12 7.080518816511508e-10  0.
-1.3173088337737515e-11 6.924421374724461e-10  0.
-2.1621790196795184e-11 6.658825833801292e-10  0.
-3.289414874939245e-11 6.240570577176987e-10  0.
-4.656109484643534e-11 5.62886563222715e-10  0.
-6.186342659774132e-11 4.799321121212011e-10  0.
-8.400316668005948e-11 3.8244663959528196e-10  0.
-2.2471963570298666e-10 4.033011673190345e-10  0.
0.0 4.774680194940399e-09  0.
-2.4625487021552713e-18 4.7746801937815436e-09  0.
-2.2690198903803086e-17 4.77468018121724e-09  0.
-1.7919610572363357e-16 4.774680074994981e-09  0.
-1.2119778584766696e-15 4.774679304205609e-09  0.
-6.970143621020923e-15 4.774674539829561e-09  0.
-3.400707470105738e-14 4.774649567956073e-09  0.
-1.4131514831186384e-13 4.774538394873614e-09  0.
-5.051214749733841e-13 4.774114832533369e-09  0.
-1.5731979289046463e-12 4.772715995479707e-09  0.
-4.319935959055325e-12 4.76866257865283e-09  0.
-1.0576617216970639e-11 4.7582344254411885e-09  0.
-2.330252007519134e-11 4.734177609809482e-09  0.
-4.6580817692538804e-11 4.683978334483536e-09  0.
-8.504766022216282e-11 4.588537984801162e-09  0.
-1.4265803733806194e-10 4.422184693746613e-09  0.
-2.2089362308494564e-10 4.1549936152066545e-09  0.
-3.1718516669886834e-10 3.757997441356516e-09  0.
-4.268180992606903e-10 3.2136685958731026e-09  0.
-5.897171785896965e-10 2.5767870645306923e-09  0.
-1.5400098825297191e-09 2.744091776283148e-09  0.
0.0 2.6706736373195127e-08  0.
-6.454912420813476e-18 2.6706736370366586e-08  0.
-6.308533516411416e-17 2.6706736338518667e-08  0.
-5.319506339093864e-16 2.670673605159278e-08  0.
-3.862540564250025e-15 2.670673381887101e-08  0.
-2.3962204345391316e-14 2.6706718939478356e-08  0.
-1.2637384453446963e-13 2.6706634545980492e-08  0.
-5.663768731031567e-13 2.670622825938642e-08  0.
-2.1698447525687794e-12 2.6704561909362335e-08  0.
-7.183118997987549e-12 2.6698685650781702e-08  0.
-2.079530453255464e-11 2.668065237872092e-08  0.
-5.3247918462830666e-11 2.663193003032839e-08  0.
-1.2183828710169316e-10 2.6514770438483634e-08  0.
-2.513163676552176e-10 2.6261678038162114e-08  0.
-4.709051365309107e-10 2.5766485977077667e-08  0.
-8.067058430075294e-10 2.488287545183956e-08  0.
-1.2705515767831768e-09 2.3436474678498168e-08  0.
-1.8496508874390316e-09 2.1255141409890357e-08  0.
-2.521193359068861e-09 1.8236052264225038e-08  0.
-3.550171412877687e-09 1.4740813188400462e-08  0.
-8.991859151900306e-09 1.5892554138108602e-08  0.
0.0 1.246483660395838e-07  0.
-1.5430625243036493e-17 1.246483660334095e-07  0.
-1.586864021608585e-16 1.2464836596065264e-07  0.
-1.4158876422721835e-15 1.2464836526781217e-07  0.
-1.0934746478402886e-14 1.2464835954250753e-07  0.
-7.248857637660439e-14 1.2464831881033538e-07  0.
-4.097272383602264e-13 1.24648071247721e-07  0.
-1.9678903995546176e-12 1.246467922845387e-07  0.
-8.04594863756201e-12 1.2464117937667073e-07  0.
-2.8224435686474523e-11 1.2462013216615495e-07  0.
-8.592782258306014e-11 1.2455197221439205e-07  0.
-2.2962020167686707e-10 1.2435913519647858e-07  0.
-5.444958468998284e-10 1.2387712895294196e-07  0.
-1.1565863162337809e-09 1.228019919392277e-07  0.
-2.2193087550197475e-09 1.206429152642063e-07  0.
-3.874625201508107e-09 1.1670924120566614e-07  0.
-6.1943150897124e-09 1.1016414157889855e-07  0.
-9.126659157620383e-09 1.0017216265641722e-07  0.
-1.259479538992531e-08 8.626447015445207e-08  0.
-1.8101863673933822e-08 7.050833800864009e-08  0.
-4.408568684419205e-08 7.722400807203007e-08  0.
0.0 4.761721788193116e-07  0.
-3.386052318642635e-17 4.7617217880703734e-07  0.
-3.637838951398694e-16 4.761721786560945e-07  0.
-3.4084687378811474e-15 4.7617217714947343e-07  0.
-2.776567427297107e-14 4.7617216403653917e-07  0.
-1.9498165484639457e-13 4.761720653383881e-07  0.
-1.171217588654325e-12 4.7617142826049117e-07  0.
-5.983855769988501e-12 4.761679263105233e-07  0.
-2.596154051472202e-11 4.7615159219821263e-07  0.
-9.605149949693228e-11 4.7608683773477026e-07  0.
-3.059976361089967e-10 4.7586690683707193e-07  0.
-8.494873787781661e-10 4.752192517582514e-07  0.
-2.0775905194295865e-09 4.7354689920019775e-07  0.
-4.523961712367917e-09 4.697184515158155e-07  0.
-8.848342135202705e-09 4.6187497313783453e-07  0.
-1.5673733414746016e-08 4.473704053892353e-07  0.
-2.5324638526019465e-08 4.229828165818721e-07  0.
-3.762875565376516e-08 3.855174598709683e-07  0.
-5.2488882448072306e-08 3.3348820430099416e-07  0.
-7.707641582982483e-08 2.770031705122157e-07  0.
-1.7841921542308202e-07 3.096509899407856e-07  0.
0.0 1.454659422645263e-06  0.
-6.845294181894736e-17 1.454659422622877e-06  0.
-7.642125888849318e-16 1.454659422337819e-06  0.
-7.468148962965245e-15 1.454659419374703e-06  0.
-6.369981928391101e-14 1.4546593924095863e-06  0.
-4.701574718638366e-13 1.4546591793611563e-06  0.
-2.9774708347714905e-12 1.4546577308846952e-06  0.
-1.6061509444607226e-11 1.4546493261854517e-06  0.
-7.347444202161378e-11 1.4546079636131337e-06  0.
-2.851791363988018e-10 1.4544356583358869e-06  0.
-9.454853668415869e-10 1.4538255638239162e-06  0.
-2.708363737359988e-09 1.4519707738271397e-06  0.
-6.7848746849334145e-09 1.4470666939411246e-06  0.
-1.502846854963577e-08 1.4356606659489122e-06  0.
-2.9737198609839585e-08 1.4120668309554834e-06  0.
-5.3026838886642686e-08 1.368259253040296e-06  0.
-8.595764244610662e-08 1.2946370609305962e-06  0.
-1.2796119546470158e-07 1.1821465095728483e-06  0.
-1.7986147934975564e-07 1.028791509290542e-06  0.
-2.697572890453053e-07 8.76073685373837e-07  0.
-5.843288525177987e-07 1.005777818547978e-06  0.
0.0 3.463905931230031e-06  0.
-1.2793161066787116e-16 3.463905931192673e-06  0.
-1.4758505824358303e-15 3.463905930702992e-06  0.
-1.4953499922021636e-14 3.463905925431389e-06  0.
-1.3268132379954715e-13 3.4639058755857832e-06  0.
-1.0220625210403676e-12 3.463905465029071e-06  0.
-6.7742660828925205e-12 3.4639025463350427e-06  0.
-3.830737122056149e-11 3.4638848015317154e-06  0.
-1.8357888542920908e-10 3.463793291569517e-06  0.
-7.433715670039583e-10 3.463395152192737e-06  0.
-2.551104326171659e-09 3.4619339908102214e-06  0.
-7.490081775364172e-09 3.457379525585052e-06  0.
-1.9057074763609556e-08 3.445174290270245e-06  0.
-4.253129602670851e-08 3.4166841507240337e-06  0.
-8.422745917307166e-08 3.3580560627733438e-06  0.
-1.4953548497169206e-07 3.250520891443938e-06  0.
-2.404447152182409e-07 3.0731333673904808e-06  0.
-3.5508231508769555e-07 2.809246872681091e-06  0.
-5.002030520892771e-07 2.4679071067572338e-06  0.
-7.637178254534057e-07 2.188396677213729e-06  0.
-1.5159235150088687e-06 2.598335585478947e-06  0.
0.0 6.317782543804979e-06  0.
-2.2140533922796869e-16 6.317782543748124e-06  0.
-2.626868210943123e-15 6.317782542983931e-06  0.
-2.7449870660160205e-14 6.317782534506627e-06  0.
-2.518932278897069e-13 6.3177824516798836e-06  0.
-2.01232593418508e-12 6.317781744789054e-06  0.
-1.3866465257660096e-11 6.317776524177066e-06  0.
-8.164898958938322e-11 6.317743489172814e-06  0.
-4.073328539845723e-10 6.317566122723021e-06  0.
-1.7114068504327e-09 6.316764778315731e-06  0.
-6.049243077220456e-09 6.313731934298036e-06  0.
-1.8096339113440278e-08 6.304097417634914e-06  0.
-4.638140824693816e-08 6.278154070314926e-06  0.
-1.0326717562845118e-07 6.218103793172531e-06  0.
-2.0220388726318205e-07 6.097122877676487e-06  0.
-3.527035872498814e-07 5.882261092798752e-06  0.
-5.545888950133238e-07 5.543017278715299e-06  0.
-8.021903382797203e-07 5.069012364853232e-06  0.
-1.1240169774398445e-06 4.529394934468857e-06  0.
-1.7294088028084488e-06 4.2918889457638284e-06  0.
-3.065410975807721e-06 5.286034447338081e-06  0.
0.0 9.008804393930656e-06  0.
-3.5617815758001474e-16 9.00880439385154e-06  0.
-4.32736635357499e-15 9.008804392764441e-06  0.
-4.6416656775710583e-14 9.008804380394445e-06  0.
-4.3822995954966064e-13 9.008804256138547e-06  0.
-3.6103156404043998e-12 9.008803163335812e-06  0.
-2.5709121363185443e-11 9.008794828413494e-06  0.
-1.5666497192248416e-10 9.008740268950118e-06  0.
-8.08850334881887e-10 9.008437106717694e-06  0.
-3.5077575424072835e-09 9.007022367359345e-06  0.
-1.2713558568880015e-08 9.001525256509791e-06  0.
-3.856842393510868e-08 8.983803698266088e-06  0.
-9.88947097895711e-08 8.936177883407576e-06  0.
-2.1760688645783667e-07 8.828066539525616e-06  0.
-4.168556987279274e-07 8.617633348356932e-06  0.
-7.049235387874224e-07 8.262727596945079e-06  0.
-1.0702101854815358e-06 7.740534207397148e-06  0.
-1.4985450938088573e-06 7.091121240228901e-06  0.
-2.075267248241617e-06 6.5501572568380065e-06  0.
-3.1465642356617615e-06 6.836170341227465e-06  0.
-4.869148836381087e-06 8.59987691602217e-06  0.
0.0 1.110261290594068e-05  0.
-5.351447317719416e-16 1.1102612905839455e-05  0.
-6.632978771185408e-15 1.1102612904422905e-05  0.
-7.272414566257913e-14 1.1102612887959532e-05  0.
-7.031594724413122e-13 1.1102612718730716e-05  0.
-5.944036350801033e-12 1.1102611192777798e-05  0.
-4.3509024180778894e-11 1.1102599237925277e-05  0.
-2.728813905831337e-10 1.1102518739105808e-05  0.
-1.450255363699691e-09 1.1102058373251465e-05  0.
-6.460967671092735e-09 1.1099850369570331e-05  0.
-2.391983190279022e-08 1.10910765672399e-05  0.
-7.333715894376429e-08 1.1062458132653804e-05  0.
-1.8722113238338538e-07 1.0986001076732226e-05  0.
-4.0398549230155766e-07 1.0817205591177356e-05  0.
-7.504272942866558e-07 1.0503926193807798e-05  0.
-1.2196620308943517e-06 1.0008996897900116e-05  0.
-1.7754263167127206e-06 9.346802186598296e-06  0.
-2.4074657497963317e-06 8.66457485457744e-06  0.
-3.2958180194006535e-06 8.46488660641631e-06  0.
-4.775610802304493e-06 9.659377101359686e-06  0.
-6.462470655337517e-06 1.1795600574592394e-05  0.
0.0 1.3448510434113707e-05  0.
-7.529880592079883e-16 1.344851043399553e-05  0.
-9.488242195884751e-15 1.3448510432316893e-05  0.
-1.0592689077972058e-13 1.3448510412463802e-05  0.
-1.0444923615001176e-12 1.344851020447807e-05  0.
-9.018683625656937e-12 1.3448508290079549e-05  0.
-6.75293424254508e-11 1.3448492957248847e-05  0.
-4.33730795565149e-10 1.3448387276285941e-05  0.
-2.361180794202613e-09 1.3447768305045771e-05  0.
-1.0758883330272021e-08 1.3444730885599762e-05  0.
-4.0549884859476925e-08 1.3432430417645565e-05  0.
-1.2536238361188582e-07 1.3391916301531581e-05  0.
-3.1784172027836503e-07 1.3284475991441173e-05  0.
-6.692185599276673e-07 1.305488619543382e-05  0.
-1.197730448886023e-06 1.2652914289954142e-05  0.
-1.866786581572191e-06 1.2065376039187618e-05  0.
-2.6142150844919982e-06 1.1369580597172831e-05  0.
-3.497283041840266e-06 1.0849698529401945e-05  0.
-4.765622393850619e-06 1.1213206170885983e-05  0.
-6.4780988568653525e-06 1.2919923308782223e-05  0.
-7.970068700611843e-06 1.4487999478720958e-05  0.
0.0 1.6005222736458726e-05  0.
-9.931462704902012e-16 1.600522273633477e-05  0.
-1.2680792674667217e-14 1.6005222734552753e-05  0.
-1.43630627936726e-13 1.6005222713177097e-05  0.
-1.4386641120008474e-12 1.6005222485781758e-05  0.
-1.2634442910249274e-11 1.6005220357760017e-05  0.
-9.633401479062717e-11 1.6005203008087933e-05  0.
-6.306390022764896e-10 1.6005081156781955e-05  0.
-3.5001053476780995e-09 1.6004353562650218e-05  0.
-1.624204357967899e-08 1.6000715868889228e-05  0.
-6.211545798172785e-08 1.598575173915262e-05  0.
-1.9329883127285447e-07 1.5936054891590227e-05  0.
-4.8640821580001e-07 1.5805179489100475e-05  0.
-9.976159848204157e-07 1.5534624392303087e-05  0.
-1.7151464032887812e-06 1.5091135225642177e-05  0.
-2.5736741203444165e-06 1.4499233457826106e-05  0.
-3.524548876223541e-06 1.3896318340485983e-05  0.
-4.7316931412715905e-06 1.370586715269954e-05  0.
-6.412741233894215e-06 1.4543452049821276e-05  0.
-8.155024504901515e-06 1.5896121529702322e-05  0.
-9.50598571670143e-06 1.650968129411366e-05  0.
0.0 1.8251578744392835e-05  0.
-1.230055871274396e-15 1.8251578744278018e-05  0.
-1.5864990409910796e-14 1.8251578742612118e-05  0.
-1.816937711449412e-13 1.8251578722415786e-05  0.
-1.8418563699481115e-12 1.8251578505073007e-05  0.
-1.638588121013279e-11 1.8251576445565156e-05  0.
-1.266790414377022e-10 1.8251559427777914e-05  0.
-8.414518901190491e-10 1.8251438196119132e-05  0.
-4.7398116586377385e-09 1.8250703626354518e-05  0.
-2.2306203179642258e-08 1.8246978332452442e-05  0.
-8.627982095412474e-08 1.8231466399297352e-05  0.
-2.698567234938048e-07 1.8179608984203295e-05  0.
-6.744254252157238e-07 1.8043797403688642e-05  0.
-1.3497554007837113e-06 1.7771182743307235e-05  0.
-2.231818046880607e-06 1.7353771860578953e-05  0.
-3.249542767990766e-06 1.6854593091367835e-05  0.
-4.441842252267309e-06 1.6441422209356917e-05  0.
-5.955650262498925e-06 1.657261865432199e-05  0.
-7.816478411594218e-06 1.749908776590215e-05  0.
-9.319585982791599e-06 1.8185730215640914e-05  0.
-1.055348741699813e-05 1.859045451607919e-05  0.
0.0 2.07000315941317e-05  0.
-1.4321896393844378e-15 2.0700031594042813e-05  0.
-1.8604252105036084e-14 2.070003159274441e-05  0.
-2.1473273486355266e-13 2.0700031576883562e-05  0.
-2.195243188405621e-12 2.070003140478632e-05  0.
-1.9708628405663026e-11 2.0700029759465317e-05  0.
-1.5386144789078055e-10 2.070001603379429e-05  0.
-1.0325651243650433e-09 2.069991726255118e-05  0.
-5.8775995364096834e-09 2.0699312515369048e-05  0.
-2.7938708301734327e-08 2.069621420804473e-05  0.
-1.0894998356797944e-07 2.068319908898248e-05  0.
-3.420267837763388e-07 2.063946760051144e-05  0.
-8.504073700002881e-07 2.0525353053680388e-05  0.
-1.6691955386790453e-06 2.030139444222278e-05  0.
-2.6719304034175314e-06 1.9978653887966946e-05  0.
-3.805063921930594e-06 1.9640455103058136e-05  0.
-5.235121815746819e-06 1.9443747594716063e-05  0.
-6.902444339731499e-06 1.9685938837253926e-05  0.
-8.53438702397241e-06 2.031568893672634e-05  0.
-9.84782200398976e-06 2.0612694155655108e-05  0.
-1.108292183233329e-05 2.1193047571439797e-05  0.
0.0 2.306335955568833e-05  0.
-1.5685660872505828e-15 2.306335955563975e-05  0.
-2.046273248336634e-14 2.3063359554927308e-05  0.
-2.372814075097489e-13 2.3063359546185104e-05  0.
-2.4379770437122104e-12 2.3063359450864584e-05  0.
-2.2006823036199102e-11 2.3063358534740036e-05  0.
-1.7280272561986796e-10 2.3063350848797087e-05  0.
-1.1667905781374192e-09 2.3063295206101754e-05  0.
-6.683227641433657e-09 2.306295239594559e-05  0.
-3.195854642709957e-08 2.3061185276107517e-05  0.
-1.2523806847105287e-07 2.3053722038255612e-05  0.
-3.9405709840740467e-07 2.3028563496229892e-05  0.
-9.767373861581612e-07 2.2963025516611763e-05  0.
-1.8937888772664632e-06 2.2836125957639036e-05  0.
-2.967318591496391e-06 2.2661037740116112e-05  0.
-4.163010504732092e-06 2.2499017955293583e-05  0.
-5.741756964497166e-06 2.2444941533833175e-05  0.
-7.431767492362538e-06 2.259930091859432e-05  0.
-8.78046475153407e-06 2.2864516917598308e-05  0.
-1.0172881703348069e-05 2.300266242315544e-05  0.
-1.1375761422401013e-05 2.3303907560204696e-05  0.
0.0 2.544999999999995e-05  0.
-1.6167805323486382e-15 2.544999999999995e-05  0.
-2.1121347505315288e-14 2.544999999999995e-05  0.
-2.4529574223251504e-13 2.544999999999995e-05  0.
-2.524526387625688e-12 2.544999999999995e-05  0.
-2.2829107354725347e-11 2.544999999999995e-05  0.
-1.7960505185216344e-10 2.544999999999995e-05  0.
-1.215185404294902e-09 2.544999999999995e-05  0.
-6.974883830036507e-09 2.544999999999995e-05  0.
-3.341966517367967e-08 2.544999999999995e-05  0.
-1.3117896178099747e-07 2.544999999999995e-05  0.
-4.1307099685200603e-07 2.544999999999995e-05  0.
-1.022828315698633e-06 2.544999999999995e-05  0.
-1.974946864178268e-06 2.544999999999995e-05  0.
-3.0714296553992304e-06 2.544999999999995e-05  0.
-4.284807646202196e-06 2.544999999999995e-05  0.
-5.906487365833057e-06 2.544999999999995e-05  0.
-7.593356630446579e-06 2.544999999999995e-05  0.
-8.86687859903546e-06 2.544999999999995e-05  0.
-1.0332921577926998e-05 2.544999999999995e-05  0.
-1.145285138239738e-05 2.544999999999995e-05  0.
</DataArray>
<DataArray type="Float64" Name="sigma_xx" NumberOfComponents="1" format="ascii" >
0.4439258738386796 
0.44392571840745615 
0.44392526321601605 
0.4439234979614069 
0.4439176914949881 
0.4438994172240028 
0.44384534936270353 
0.4437022971259806 
0.44335788373928137 
0.4425931954266103 
0.44101924334682946 
0.4380049989372024 
0.4326087710282421 
0.42354347806750053 
0.4092118199849891 
0.3878341092722336 
0.3576800078342045 
0.3173503682063482 
0.2652852160167639 
0.1806631955147963 
0.12525218640035968 
2.9310032623186535 
2.931002962558437 
2.931001624739692 
2.9309955462686323 
2.93097131565112 
2.930887682550675 
2.9306283011454317 
2.929906328663633 
2.928083769893063 
2.923871084137274 
2.91489765102959 
2.8971867460647607 
2.864637083099807 
2.8087083714378727 
2.718555058844884 
2.581833802306476 
2.386279479571484 
2.1217428314290734 
1.7778852445804454 
1.239561803201283 
0.8945119978065459 
29.632705988991138 
29.632704884319224 
29.63269794542532 
29.632662840173282 
29.63251012344513 
29.63193668215068 
29.63004099298948 
29.624458197652345 
29.609658763751753 
29.574001308985117 
29.49531584528485 
29.33523097770062 
29.03331375869732 
28.502999849244752 
27.63209336342775 
26.290455129585048 
24.34626503733383 
21.68756855214226 
18.196919626678458 
12.689338585447624 
9.15237711174299 
261.02965174912276 
261.02964763574647 
261.02961664387067 
261.0294426996783 
261.0286173598818 
261.02525600424354 
261.0133363944999 
260.976073718222 
260.8720906738248 
260.6104129387886 
260.01115407958673 
258.7530764763811 
256.3163278623825 
251.9390066346715 
244.61324354407833 
233.14840280341798 
216.31573728642098 
193.0443633307854 
162.15554823340022 
112.80612603470348 
80.98262064826218 
1996.682597837917 
1996.682582888764 
1996.68246185225 
1996.6817214722703 
1996.6778864899384 
1996.6609373978088 
1996.5963675649948 
1996.3814937684615 
1995.749152627901 
1994.0841123389223 
1990.1228897611916 
1981.5348865581666 
1964.4469953228322 
1933.0510905690705 
1879.5146338512754 
1794.42063987234 
1667.8829256377976 
1491.063889702548 
1253.6805018920068 
869.3259902686763 
620.3844618357654 
13105.149874637062 
13105.149826320156 
13105.149409148304 
13105.146658237696 
13105.131223750672 
13105.057478557388 
13104.75571355551 
13103.686736071202 
13100.366687968097 
13091.218208705064 
13068.605792448945 
13018.00240363082 
12914.634381810947 
12720.576029734417 
12383.776470470395 
11840.722531383792 
11023.734719359243 
9870.837381237281 
8304.979337075965 
5733.461765689006 
4060.300693320416 
72753.6773785342 
72753.67723914015 
72753.67596180635 
72753.66694481365 
72753.6125952055 
72753.33354377908 
72752.11133975777 
72747.51096918994 
72732.45727674736 
72689.10986123476 
72577.9994862341 
72321.85003967215 
71785.95609118874 
70760.55883226126 
68954.09923905469 
66007.13969860115 
61532.91064491249 
55169.13114230469 
46426.758764483966 
31856.195296128808 
22331.50695693519 
335674.52629579266 
335674.5259306292 
335674.52241536335 
335674.49606637366 
335674.3268293604 
335673.39970818616 
335669.07591383025 
335651.84817981307 
335592.6623530457 
335415.2018081534 
334945.3194277178 
333834.16642262513 
331464.34100023704 
326865.54339992057 
318683.625334723 
305247.7897150157 
284759.53303121735 
255500.35256009788 
214884.18480691267 
146179.6107374707 
101064.16053596296 
1258876.0910011816 
1258876.0901288572 
1258876.0813573569 
1258876.0120772254 
1258875.5415635807 
1258872.8111203092 
1258859.333943193 
1258802.7578565553 
1258599.5862484872 
1257968.63043677 
1256252.8503174654 
1252119.462591319 
1243199.5444771273 
1225789.3718777832 
1194778.6589666216 
1143975.1811637168 
1066832.163006828 
956995.6753863599 
803290.5306611935 
539663.7891323661 
365874.8914576346 
3727057.775655117 
3727057.7737437347 
3727057.7537744306 
3727057.588696002 
3727056.411606415 
3727049.225833216 
3727011.9207706414 
3726847.7787213945 
3726234.4705884424 
3724272.55334785 
3718833.413056884 
3705599.9888103027 
3677009.595163984 
3621551.345067599 
3523999.2201238927 
3366875.968192758 
3132814.9746292513 
2804704.4348704354 
2343927.198626235 
1545081.9018231584 
1017249.4258774305 
8379639.130629877 
8379639.12677269 
8379639.085114635 
8379638.7268698625 
8379636.062163195 
8379619.060889087 
8379526.79653429 
8379103.558199916 
8377465.7955628745 
8372097.233083909 
8357034.171343519 
8320384.232973317 
8242106.513995878 
8093572.756789896 
7840421.334532643 
7448461.568551642 
6889577.959817527 
6134923.281202957 
5079782.312852278 
3245669.743022126 
2036199.3822472428 
13650853.450885233 
13650853.44369753 
13650853.36380279 
13650852.652974095 
13650847.169745266 
13650810.827112414 
13650605.860205257 
13649630.75654152 
13645740.624913234 
13632733.293354426 
13596040.011919666 
13507641.974192608 
13323447.5070358 
12987736.942921484 
12446307.616009375 
11665264.583582375 
10639103.31384154 
9352118.495393489 
7582511.071924008 
4568285.459449054 
2610090.328758888 
15568797.081982117 
15568797.069568545 
15568796.928130075 
15568795.63255437 
15568785.322342845 
15568714.716140956 
15568303.085776897 
15566282.031270687 
15558003.218180608 
15529870.192508716 
15450480.18203986 
15262780.867208602 
14886285.378279857 
14239197.042984355 
13278050.184615843 
12034189.522324359 
10606765.273987724 
9026566.143677136 
6915977.257253619 
3625845.2070902 
1610386.107459097 
13430076.781610172 
13430076.761650383 
13430076.529373664 
13430074.348234218 
13430056.523507027 
13429931.002591437 
13429178.134796942 
13425379.64895834 
13409459.376786575 
13354623.95490723 
13200316.307947164 
12844701.601343524 
12166756.157205671 
11088308.253123116 
9655658.582298595 
8064366.133085271 
6567493.683005216 
5151244.617358294 
3258580.660346999 
1010121.7683276879 
-67572.51298688212 
12458861.260824334 
12458861.23084178 
12458860.875631347 
12458857.46957108 
12458829.00439075 
12458623.777316371 
12457362.859550772 
12450851.777177032 
12423020.242507193 
12326061.26302092 
12054451.340894539 
11447036.34147576 
10359656.68440418 
8791442.949294474 
6986361.272148916 
5361756.049019073 
4165036.8428268805 
3048036.3968388774 
1309956.589864553 
-17584.446563031903 
-238047.06927792728 
13761019.553956173 
13761019.511795249 
13761019.004860956 
13761014.059232907 
13760971.956806988 
13760662.445990615 
13758722.542874 
13748510.137950221 
13704132.377373237 
13548068.935918506 
13113202.67632954 
12171473.224134745 
10604934.70448188 
8606647.828346893 
6681972.479199845 
5355379.0037035495 
4498910.786354509 
3234630.0365239945 
1222639.1655765532 
-70470.74005654396 
-220162.0545909137 
13481023.359177677 
13481023.303579988 
13481022.627100972 
13481015.935373742 
13480958.118542615 
13480526.403680775 
13477776.91366401 
13463075.463407246 
13398331.02276088 
13168905.202447172 
12532935.923236016 
11198267.453445304 
9148071.78793218 
6899181.430395282 
5152752.896952209 
4174683.39304656 
3267863.4844767046 
1348561.2307711062 
-555672.9166300619 
-1034590.0413593949 
-927803.5256731559 
13176379.691512626 
13176379.622660046 
13176378.777238214 
13176370.325170267 
13176296.466345763 
13175738.337792085 
13172139.829058437 
13152666.732010314 
13066015.714876369 
12757138.615673235 
11904732.246450499 
10164730.58739592 
7694002.845862022 
5424705.3582270695 
4059952.8088118033 
3126933.971045626 
1751064.5205422142 
-437015.68873635546 
-1371802.917564146 
-463461.08938081155 
74433.2689598205 
13505410.930148426 
13505410.849992394 
13505409.859422486 
13505399.881822683 
13505311.99157312 
13504642.20478246 
13500286.135143347 
13476512.516377037 
13369942.478483671 
12988446.22003691 
11939152.411617838 
9843027.810467282 
7061843.744802043 
4947147.581461728 
4007193.8613391197 
2739637.424413871 
830398.3190603133 
-439089.0149835539 
-423010.1116837633 
295760.67556012253 
635323.9901970928 
13331499.36113223 
13331499.273345597 
13331498.184309399 
13331487.165906277 
13331389.644109981 
13330642.71602861 
13325759.758674765 
13298975.225769216 
13178377.16626507 
12745558.975201163 
11557552.821361046 
9216566.68348303 
6251308.034941066 