<?xml version="1.0"?>
<VTKFile type="UnstructuredGrid" version="0.1" byte_order="LittleEndian" compressor="vtkZLibDataCompressor">
<UnstructuredGrid>
<Piece NumberOfPoints="441" NumberOfCells="400">
<PointData>
<DataArray type="Float64" Name="displacement" NumberOfComponents="3" format="ascii" >
0.0 1.5582787664936145e-16  0.
1.700546658361695e-21 1.5583271668397675e-16  0.
-3.9159432283070574e-23 1.558343860049774e-16  0.
-8.097465318126055e-22 1.5583372765665674e-16  0.
-1.4147349604658953e-21 1.5582863808272308e-16  0.
-1.104389050408847e-21 1.558264837274528e-16  0.
-9.039966596488286e-21 1.558195109695554e-16  0.
-2.5899751607043078e-20 1.5578095608848747e-16  0.
-6.521012358785047e-20 1.5569739493584223e-16  0.
-1.4834244836150152e-19 1.55512064455122e-16  0.
-3.167043991753656e-19 1.5508363311039681e-16  0.
-6.050895513990441e-19 1.542276995421377e-16  0.
-1.119807563796903e-18 1.5264346069403565e-16  0.
-1.903492848127289e-18 1.498637419882911e-16  0.
-3.0324243517872313e-18 1.4531030152721268e-16  0.
-4.560161222533952e-18 1.3830163982902367e-16  0.
-6.4223888636210255e-18 1.2815338374602999e-16  0.
-8.554351567976122e-18 1.1429197727058719e-16  0.
-1.0794435471519988e-17 9.643124990039913e-17  0.
-1.3728324048528905e-17 7.529493627137507e-17  0.
-3.7231985448900457e-17 7.561661444825584e-17  0.
0.0 1.3160035829101172e-15  0.
-1.3790315288647876e-21 1.3160071439048824e-15  0.
-3.5462526622834167e-22 1.3160067820369286e-15  0.
-1.0874554690169508e-21 1.3160060042453202e-15  0.
-4.8819088789495554e-21 1.316001349696412e-15  0.
-1.5402269504635474e-20 1.3159841263197004e-15  0.
-5.3821785751171076e-20 1.3159247337621664e-15  0.
-1.6560147938958017e-19 1.3157333342523517e-15  0.
-4.342153512531679e-19 1.3152250016111928e-15  0.
-1.0525138814755654e-18 1.3139255906898968e-15  0.
-2.326008644223165e-18 1.3109810592815483e-15  0.
-4.727826436057504e-18 1.3048042579585057e-15  0.
-8.8694785768708e-18 1.292823418303182e-15  0.
-1.5515194878558265e-17 1.2712699567814276e-15  0.
-2.530735527928332e-17 1.23506858576777e-15  0.
-3.865195335205725e-17 1.1782302595996268e-15  0.
-5.539788630300442e-17 1.0944821485063392e-15  0.
-7.468804929147607e-17 9.784838546164237e-16  0.
-9.516677084305888e-17 8.273311455529919e-16  0.
-1.2188239401293176e-16 6.49066480130658e-16  0.
-3.558527867533165e-16 6.630768109967726e-16  0.
0.0 1.9765962670058638e-14  0.
-2.855625165650202e-21 1.9765957575153386e-14  0.
-2.4274252989886644e-21 1.9765947049251172e-14  0.
-4.357754736539681e-21 1.9765941154501872e-14  0.
-3.6992242292652623e-20 1.976591358296287e-14  0.
-1.5027966486880143e-19 1.9765765962154697e-14  0.
-5.516386976042948e-19 1.9765189843302575e-14  0.
-1.7784127665259095e-18 1.9763273226465147e-14  0.
-5.041654566858859e-18 1.9757568470086686e-14  0.
-1.2866585531529857e-17 1.9742441016273275e-14  0.
-2.973336582231235e-17 1.9706156242776913e-14  0.
-6.282779037807652e-17 1.9626810390366848e-14  0.
-1.221032070529064e-16 1.9467441638795442e-14  0.
-2.1953733124906698e-16 1.9171693997079763e-14  0.
-3.667400864394526e-16 1.8662377553638835e-14  0.
-5.713091830618707e-16 1.784501273604556e-14  0.
-8.324652032005814e-16 1.6618905143912338e-14  0.
-1.1375717785070947e-15 1.4895102081795756e-14  0.
-1.4648251697185122e-15 1.2622959892716606e-14  0.
-1.8942173340439605e-15 9.925302215279395e-15  0.
-5.5137871467033106e-15 1.0180980444767453e-14  0.
0.0 2.6465344538380036e-13  0.
-5.478403329843672e-21 2.6465343672042756e-13  0.
-3.907108675797584e-21 2.6465343788368963e-13  0.
-3.909998282210347e-20 2.646534016773443e-13  0.
-2.400176829690995e-19 2.6465319562867006e-13  0.
-1.1511300709157648e-18 2.6465213237657285e-13  0.
-4.725977754752367e-18 2.6464752651918724e-13  0.
-1.651277829717354e-17 2.6463054839602017e-13  0.
-5.044258925592739e-17 2.6457612568442295e-13  0.
-1.3664498011275648e-16 2.644220974806509e-13  0.
-3.325211105508794e-16 2.6403180903093873e-13  0.
-7.335615656077376e-16 2.631376154999921e-13  0.
-1.4791125557794634e-15 2.6126924149659747e-13  0.
-2.7426917624319762e-15 2.576848118179916e-13  0.
-4.702242461316238e-15 2.5133547834552414e-13  0.
-7.48505171098436e-15 2.4090361185698257e-13  0.
-1.1102465134503668e-14 2.249461754906118e-13  0.
-1.5391093245905062e-14 2.0215194804559263e-13  0.
-2.005153712172855e-14 1.7173391545657914e-13  0.
-2.6254243373096497e-14 1.3542508620348979e-13  0.
-7.582053772815091e-14 1.395033947901111e-13  0.
0.0 3.1243789002523307e-12  0.
-8.83412475935516e-21 3.124378902865858e-12  0.
-1.8701444756891512e-20 3.124378890558984e-12  0.
-1.9537786093628702e-19 3.1243787530003656e-12  0.
-1.3206256989803889e-18 3.1243777273698276e-12  0.
-7.378445986237258e-18 3.1243714913159045e-12  0.
-3.3751956493334185e-17 3.1243408558178945e-12  0.
-1.3020271171864763e-16 3.124215126829338e-12  0.
-4.3140244226892797e-16 3.123774887652228e-12  0.
-1.251981048858972e-15 3.1224326326872875e-12  0.
-3.2252615964843104e-15 3.1188148376320263e-12  0.
-7.466980571009936e-15 3.110082872748009e-12  0.
-1.567403619909595e-14 3.0910228925838823e-12  0.
-3.006769921752772e-14 3.0530874039549666e-12  0.
-5.302419607201207e-14 2.983789782819799e-12  0.
-8.64099691013684e-14 2.8669748934877656e-12  0.
-1.3065006844177313e-13 2.684462937565815e-12  0.
-1.839456904121642e-13 2.419238456950792e-12  0.
-2.426782339715551e-13 2.060606662657229e-12  0.
-3.2217058270072703e-13 1.6303736798470895e-12  0.
-9.211711595231836e-13 1.6878923956236218e-12  0.
0.0 3.22297636324562e-11  0.
-1.2335983296065422e-20 3.2229763625252345e-11  0.
-8.391415668969567e-20 3.2229763571876254e-11  0.
-7.94636557545941e-19 3.222976305351583e-11  0.
-6.079425150491283e-18 3.222975872583365e-11  0.
-3.856689787060335e-17 3.2229729013670265e-11  0.
-2.0048970662282004e-16 3.222956173819774e-11  0.
-8.606244105645376e-16 3.222879029847377e-11  0.
-3.1278872187585283e-15 3.222580362897217e-11  0.
-9.791280647472581e-15 3.221591008073228e-11  0.
-2.6895340604215228e-14 3.218731850965111e-11  0.
-6.56495729297236e-14 3.2114197794798455e-11  0.
-1.440916717499596e-13 3.194665751045957e-11  0.
-2.867904693874804e-13 3.1599452479480166e-11  0.
-5.21579025122479e-13 3.094347238355579e-11  0.
-8.717050136650058e-13 2.980643878995633e-11  0.
-1.3455403304349338e-12 2.798881088819142e-11  0.
-1.9259869588084293e-12 2.5298245081156067e-11  0.
-2.57576048314628e-12 2.160883023173301e-11  0.
-3.4722987795069826e-12 1.7164029387270235e-11  0.
-9.803501326335954e-12 1.787637116542093e-11  0.
0.0 2.8749270968781623e-10  0.
-2.91636054332551e-20 2.8749270968591547e-10  0.
-2.7610667224710634e-19 2.874927095398149e-10  0.
-2.7852990058031773e-18 2.8749270787151703e-10  0.
-2.3681570109457866e-17 2.874926926069598e-10  0.
-1.6796900119207695e-16 2.8749257530028435e-10  0.
-9.83932226591378e-16 2.8749182974238844e-10  0.
-4.7463786291735584e-15 2.874879319916564e-10  0.
-1.9025364160839812e-14 2.8747113540039665e-10  0.
-6.483730343566891e-14 2.874100853282571e-10  0.
-1.909261865616372e-13 2.8721959972211885e-10  0.
-4.94280175083183e-13 2.867000580745148e-10  0.
-1.1384707006229043e-12 2.854445863934976e-10  0.
-2.3593065845768956e-12 2.827248910320837e-10  0.
-4.434688033932456e-12 2.773952362975578e-10  0.
-7.616148859031436e-12 2.6787472286287997e-10  0.
-1.2016238417777232e-11 2.522777850230927e-10  0.
-1.750573659706053e-11 2.287318654666981e-10  0.
-2.375404326980657e-11 1.959690191887457e-10  0.
-3.2574321025451595e-11 1.5638909735558497e-10  0.
-9.049142399108726e-11 1.64070582151485e-10  0.
0.0 2.1906882178158064e-09  0.
-6.917336640594767e-20 2.190688217796317e-09  0.
-7.891441990430033e-19 2.19068821738905e-09  0.
-8.594335368933117e-18 2.1906882127303405e-09  0.
-7.953924607015187e-17 2.1906881663315846e-09  0.
-6.211239420782813e-16 2.1906877746191492e-09  0.
-4.0427055038342125e-15 2.1906850082462624e-09  0.
-2.175455391806544e-14 2.1906688389097748e-09  0.
-9.682331035231598e-14 2.190590828644533e-09  0.
-3.6046342505480063e-13 2.190278451741211e-09  0.
-1.1457517132510382e-12 2.189218475393472e-09  0.
-3.1576462606732337e-12 2.1861197940568544e-09  0.
-7.665986865328874e-12 2.178184299882936e-09  0.
-1.6581133460676297e-11 2.1601544560304163e-09  0.
-3.229101941931993e-11 2.123405555052595e-09  0.
-5.7059559022074787e-11 2.0556258831055563e-09  0.
-9.212889236060195e-11 1.941672704182715e-09  0.
-1.3668851339323366e-10 1.7660746097039487e-09  0.
-1.8836929907661164e-10 1.5180876537263634e-09  0.
-2.632526178448632e-10 1.218478800111762e-09  0.
-7.162192595037346e-10 1.2899081901612164e-09  0.
0.0 1.4056476085497216e-08  0.
-1.5422356401399986e-19 1.4056476085422927e-08  0.
-2.0449198229165857e-18 1.4056476084488492e-08  0.
-2.3552870489386573e-17 1.4056476072947091e-08  0.
-2.343516352888875e-16 1.4056475949559765e-08  0.
-1.9854099437585432e-15 1.4056474822135018e-08  0.
-1.414568154052095e-14 1.4056466120821382e-08  0.
-8.390500480611084e-14 1.4056410034092056e-08  0.
-4.120382983178463e-13 1.4056110665084623e-08  0.
-1.6811521773825746e-12 1.4054787076667231e-08  0.
-5.775816421480465e-12 1.4049896067696005e-08  0.
-1.7014893751876686e-11 1.4034506688638723e-08  0.
-4.362041668376742e-11 1.3992628411490405e-08  0.
-9.872077046944187e-11 1.3892559060039193e-08  0.
-1.9937938164966534e-10 1.3680069019170337e-08  0.
-3.628845692407437e-10 1.3274917741025219e-08  0.
-5.997152133953249e-10 1.2575500259503657e-08  0.
-9.064569065931281e-10 1.1475177837418677e-08  0.
-1.2692482179779132e-09 9.899128676455476e-09  0.
-1.8114581330708024e-09 8.004172715963461e-09  0.
-4.795940430362561e-09 8.570263172493978e-09  0.
0.0 7.465685904089325e-08  0.
-3.4422809951405253e-19 7.465685904077067e-08  0.
-4.757397565325423e-18 7.465685903880788e-08  0.
-5.799395276892861e-17 7.465685901318089e-08  0.
-6.137765986336146e-16 7.465685872262492e-08  0.
-5.571223084107993e-15 7.465685588419208e-08  0.
-4.286983536358996e-14 7.46568322704548e-08  0.
-2.7657482463271324e-13 7.46566669290287e-08  0.
-1.483311565079056e-12 7.465570216106238e-08  0.
-6.595718406905958e-12 7.465103899138571e-08  0.
-2.448397635559691e-11 7.463230361709579e-08  0.
-7.703170279091792e-11 7.456895563429655e-08  0.
-2.087190985270897e-10 7.43856822563875e-08  0.
-4.940899284996135e-10 7.392519196950604e-08  0.
-1.0349693114275802e-09 7.290652010416307e-08  0.
-1.9385850697032723e-09 7.090001781039209e-08  0.
-3.276869971368507e-09 6.734661470489405e-08  0.
-5.040412498825169e-09 6.164752346217089e-08  0.
-7.171278854981053e-09 5.3389249451219056e-08  0.
-1.0470999096146997e-08 4.359701405221421e-08  0.
-2.6745939591024257e-08 4.736868954493819e-08  0.
0.0 3.2148363781234526e-07  0.
-7.00635801359942e-19 3.2148363781212545e-07  0.
-1.0132296888339045e-17 3.2148363780835255e-07  0.
-1.2948204343210812e-16 3.2148363775705296e-07  0.
-1.4439521319550986e-15 3.214836371454e-07  0.
-1.3896080247132547e-14 3.2148363082350605e-07  0.
-1.141345693158587e-13 3.2148357480278515e-07  0.
-7.910802774607429e-13 3.214831540516683e-07  0.
-4.580033275825957e-12 3.214805056527009e-07  0.
-2.2003960728341295e-11 3.214666541397158e-07  0.
-8.778001190713851e-11 3.2140664464831004e-07  0.
-2.9378460746334736e-10 3.211898010298224e-07  0.
-8.385109950043495e-10 3.2052610120812136e-07  0.
-2.0702816336251397e-09 3.1877949677491045e-07  0.
-4.484373236217272e-09 3.1477007412074625e-07  0.
-8.618628847942958e-09 3.066424907046246e-07  0.
-1.4853637257398392e-08 2.9193653697048396e-07  0.
-2.3185338497922796e-08 2.6799656769388574e-07  0.
-3.3474332160998165e-08 2.331230523801817e-07  0.
-5.0072841782288826e-08 1.9305379418007782e-07  0.
-1.2192376924741823e-07 2.138275656026325e-07  0.
0.0 1.0944587756298477e-06  0.
-1.3259814627374675e-18 1.0944587756294663e-06  0.
-1.984034133759374e-17 1.094458775622888e-06  0.
-2.638217375037728e-16 1.0944587755298906e-06  0.
-3.075348071236099e-15 1.0944587743727252e-06  0.
-3.1097881251226725e-14 1.0944587618293116e-06  0.
-2.698937570579465e-13 1.094458644602437e-06  0.
-1.9878349886189242e-12 1.0944577106686084e-06  0.
-1.2287231719411213e-11 1.094451441318535e-06  0.
-6.315504434217098e-11 1.0944163616979297e-06  0.
-2.687780043836817e-10 1.0942539038355826e-06  0.
-9.51310014280826e-10 1.0936310687735254e-06  0.
-2.8389951561549652e-09 1.0916332303375823e-06  0.
-7.26519940050145e-09 1.0861752293102164e-06  0.
-1.6157380033688627e-08 1.0732961144290519e-06  0.
-3.166175498466618e-08 1.046669708685059e-06  0.
-5.525740008498642e-08 9.979046914181613e-07  0.
-8.702460873112055e-08 9.181257277315095e-07  0.
-1.2706730953310553e-07 8.029225498042732e-07  0.
-1.94719076586953e-07 6.79285194713922e-07  0.
-4.444232167630639e-07 7.718991838496177e-07  0.
0.0 2.8619417396989614e-06  0.
-2.3136931086450468e-18 2.861941739698347e-06  0.
-3.578988861215933e-17 2.861941739687909e-06  0.
-4.924707181650185e-16 2.8619417395352956e-06  0.
-5.9599517241998756e-15 2.8619417375665958e-06  0.
-6.283489653720543e-14 2.861941715351293e-06  0.
-5.712187296472727e-13 2.8619414982330167e-06  0.
-4.427859080137008e-12 2.861939680587885e-06  0.
-2.892772814654451e-11 2.8619268007990306e-06  0.
-1.5753745292320585e-10 2.861850474888155e-06  0.
-7.094455545008788e-10 2.861476125470053e-06  0.
-2.638316302653633e-09 2.8599646573161014e-06  0.
-8.173312004400765e-09 2.8549204824433234e-06  0.
-2.145366530858886e-08 2.840801540417756e-06  0.
-4.8508755253826835e-08 2.8070213562401596e-06  0.
-9.579560210563438e-08 2.736953131103201e-06  0.
-1.6754405090199313e-07 2.609215598580523e-06  0.
-2.6343892990953944e-07 2.4033036419589437e-06  0.
-3.8678173665346837e-07 2.1172456325150254e-06  0.
-6.048181935672404e-07 1.8547148229905805e-06  0.
-1.2640003878629268e-06 2.17976426613104e-06  0.
0.0 5.6158033824303735e-06  0.
-3.743952584902285e-18 5.615803382429533e-06  0.
-5.96423267162123e-17 5.615803382414511e-06  0.
-8.445522206287289e-16 5.615803382188476e-06  0.
-1.0547513723029292e-14 5.615803379182669e-06  0.
-1.1515242002162603e-13 5.615803344097866e-06  0.
-1.0881473730825603e-12 5.615802988096488e-06  0.
-8.802493884162368e-12 5.61579988166908e-06  0.
-6.023349049699584e-11 5.6157768504736746e-06  0.
-3.4441804554992385e-10 5.6156336259448495e-06  0.
-1.6278812350476092e-09 5.6148960116289654e-06  0.
-6.318967337668655e-09 5.611781933811478e-06  0.
-2.019280985280289e-08 5.601039979108179e-06  0.
-5.385893028800844e-08 5.570504053188798e-06  0.
-1.2227131427749747e-07 5.497608185292184e-06  0.
-2.4000629695896046e-07 5.348860501291914e-06  0.
-4.143171166951807e-07 5.085708877543328e-06  0.
-6.416631258352814e-07 4.681465137416869e-06  0.
-9.38548667610097e-07 4.175007758808663e-06  0.
-1.4806599525907266e-06 3.877824420056604e-06  0.
-2.7466438737921777e-06 4.742123685702703e-06  0.
0.0 8.377918606832763e-06  0.
-5.648227685803561e-18 8.37791860683167e-06  0.
-9.213395275058907e-17 8.377918606811995e-06  0.
-1.335866629488628e-15 8.377918606509623e-06  0.
-1.712482150003198e-14 8.377918602384908e-06  0.
-1.9244522283587125e-13 8.377918552869524e-06  0.
-1.8776459554222435e-12 8.377918034589394e-06  0.
-1.5733326997515943e-11 8.377913354579466e-06  0.
-1.1185917026973799e-10 8.377877333538529e-06  0.
-6.660489446356141e-10 8.377644185390861e-06  0.
-3.278538509708548e-09 8.37639331885022e-06  0.
-1.3199097929675412e-08 8.370907900175681e-06  0.
-4.328044103450006e-08 8.351445808631424e-06  0.
-1.1648277283282318e-07 8.29561194600931e-06  0.
-2.624592056204307e-07 8.164224930662155e-06  0.
-5.056760578417292e-07 7.90490144136831e-06  0.
-8.478479787355651e-07 7.471886492608045e-06  0.
-1.2774982163393247e-06 6.867658478134016e-06  0.
-1.8429663091724922e-06 6.275892413902071e-06  0.
-2.8642289977188566e-06 6.382065661237186e-06  0.
-4.569414274899267e-06 8.034700482804514e-06  0.
0.0 1.0510863662182228e-05  0.
-7.98353307064518e-18 1.0510863662180964e-05  0.
-1.3253835000068752e-16 1.051086366215755e-05  0.
-1.9591641155847653e-15 1.0510863661791011e-05  0.
-2.5657573888052575e-14 1.0510863656687277e-05  0.
-2.9522239312332e-13 1.0510863594010298e-05  0.
-2.956483021374525e-12 1.0510862921281952e-05  0.
-2.5493406678230554e-11 1.0510856675973083e-05  0.
-1.8698831169850968e-10 1.0510807129484345e-05  0.
-1.1508837868138173e-09 1.0510475829634193e-05  0.
-5.858116360472747e-09 1.0508637689499424e-05  0.
-2.4315650202338365e-08 1.0500316734515573e-05  0.
-8.147014061631376e-08 1.047007444796841e-05  0.
-2.2031162880763728e-07 1.0382749362946125e-05  0.
-4.886464211843232e-07 1.0181669004735158e-05  0.
-9.140258945129358e-07 9.804347957270894e-06  0.
-1.4778994700306398e-06 9.220154190864097e-06  0.
-2.152026076852148e-06 8.525151369503404e-06  0.
-3.06152283916512e-06 8.163366652824246e-06  0.
-4.523620607532315e-06 9.115734004198727e-06  0.
-6.191855893788005e-06 1.1217029445058479e-05  0.
0.0 1.2835627085139854e-05  0.
-1.0572208477389584e-17 1.2835627085138502e-05  0.
-1.780217440018546e-16 1.2835627085113469e-05  0.
-2.6726245284159898e-15 1.2835627084715572e-05  0.
-3.5602613648282867e-14 1.2835627079083506e-05  0.
-4.174240521146269e-13 1.2835627008656155e-05  0.
-4.267791367221627e-12 1.283562623749653e-05  0.
-3.7648146412334365e-11 1.2835618919398542e-05  0.
-2.830696138837273e-10 1.2835559448709586e-05  0.
-1.7888964510031023e-09 1.2835151368877802e-05  0.
-9.354530871691114e-09 1.283282539175411e-05  0.
-3.981034587846465e-08 1.2822019310171421e-05  0.
-1.3580671818795926e-07 1.2781935301645313e-05  0.
-3.6837428334370356e-07 1.2665497082129537e-05  0.
-8.01480741361271e-07 1.240345863619063e-05  0.
-1.4449244282899278e-06 1.1942060383325405e-05  0.
-2.2552223669413463e-06 1.1298894350886126e-05  0.
-3.2025297586120207e-06 1.0703287068088963e-05  0.
-4.511467619131808e-06 1.0833337255902695e-05  0.
-6.192953072548708e-06 1.2332936260238483e-05  0.
-7.652596916243245e-06 1.385234129438303e-05  0.
0.0 1.5375598293580952e-05  0.
-1.3135101066956928e-17 1.5375598293579712e-05  0.
-2.2350999478098565e-16 1.5375598293556324e-05  0.
-3.395409616031087e-15 1.5375598293179652e-05  0.
-4.5821636202231936e-14 1.537559828778056e-05  0.
-5.449693675338964e-13 1.5375598219318948e-05  0.
-5.660219037800844e-12 1.537559745810298e-05  0.
-5.0801866043474583e-11 1.5375590111443263e-05  0.
-3.89227416332545e-10 1.5375529298679736e-05  0.
-2.509766990519808e-09 1.5375103620652255e-05  0.
-1.3398205531032014e-08 1.5372626319751147e-05  0.
-5.81376886832555e-08 1.5360879844647594e-05  0.
-2.012079731130698e-07 1.531656609023139e-05  0.
-5.471718214478987e-07 1.5187050600647406e-05  0.
-1.1692482544312316e-06 1.49010673721621e-05  0.
-2.029378710799231e-06 1.4431055823928589e-05  0.
-3.0690393566354854e-06 1.3869067178087861e-05  0.
-4.3265443330067904e-06 1.3543637880395581e-05  0.
-5.938797124236674e-06 1.4129489681039754e-05  0.
-7.646606959213749e-06 1.5309815684928396e-05  0.
-8.933400129268134e-06 1.5745337327394674e-05  0.
0.0 1.764153521809189e-05  0.
-1.5320641137955565e-17 1.7641535218090932e-05  0.
-2.627167741658186e-16 1.76415352180726e-05  0.
-4.024408001711538e-15 1.7641535217775806e-05  0.
-5.48077304178081e-14 1.7641535213483897e-05  0.
-6.584218362762953e-13 1.7641535158536778e-05  0.
-6.914553474771159e-12 1.764153454108608e-05  0.
-6.281704244496008e-11 1.7641528512217432e-05  0.
-4.876836280215279e-10 1.7641477966322885e-05  0.
-3.189420017499635e-09 1.76411192435503e-05  0.
-1.727694777771649e-08 1.7639000951828567e-05  0.
-7.601692549830595e-08 1.762881009853463e-05  0.
-2.658970642791943e-07 1.7589882815004914e-05  0.
-7.248079775476683e-07 1.7475431256580615e-05  0.
-1.5279610106793361e-06 1.7225966863181743e-05  0.
-2.567248319568894e-06 1.6841894205913468e-05  0.
-3.773455210625651e-06 1.6470537344679748e-05  0.
-5.29724759896384e-06 1.6435233865392713e-05  0.
-6.934330420597016e-06 1.704375234422952e-05  0.
-8.506996193439219e-06 1.7600256819270495e-05  0.
-9.672576199507398e-06 1.777092789524596e-05  0.
0.0 2.008252771444477e-05  0.
-1.681158830238284e-17 2.0082527714444224e-05  0.
-2.8939285154158886e-16 2.008252771443417e-05  0.
-4.454814900253574e-15 2.0082527714270274e-05  0.
-6.099906753157387e-14 2.008252771188803e-05  0.
-7.371805107256871e-13 2.0082527681211164e-05  0.
-7.792571045214963e-12 2.008252733427787e-05  0.
-7.130465691249463e-11 2.00825239228509e-05  0.
-5.57933564506747e-10 2.008249510147657e-05  0.
-3.679644544431347e-09 2.008228884752788e-05  0.
-2.0106837955691502e-08 2.0081060186789265e-05  0.
-8.921122587514494e-08 2.0075096831265947e-05  0.
-3.141111269407867e-07 2.0052136824416655e-05  0.
-8.578720972692237e-07 1.9984341517763177e-05  0.
-1.794488942109422e-06 1.983754610275098e-05  0.
-2.9511139312252043e-06 1.9621853874805803e-05  0.
-4.230745901732887e-06 1.9459506633552732e-05  0.
-5.862192462815299e-06 1.954543153057861e-05  0.
-7.473340662742841e-06 1.9799810802216363e-05  0.
-8.752228070288756e-06 2.002091897696421e-05  0.
-1.0063141396728805e-05 2.043599637197288e-05  0.
0.0 2.244999999999998e-05  0.
-1.7336575257952745e-17 2.244999999999998e-05  0.
-2.98869802438902e-16 2.244999999999998e-05  0.
-4.6079410291385105e-15 2.244999999999998e-05  0.
-6.320937743622782e-14 2.244999999999998e-05  0.
-7.654042128609566e-13 2.244999999999998e-05  0.
-8.108525151689806e-12 2.244999999999998e-05  0.
-7.437292791149418e-11 2.244999999999998e-05  0.
-5.83455677634684e-10 2.244999999999998e-05  0.
-3.858711739473511e-09 2.244999999999998e-05  0.
-2.1146418995526598e-08 2.244999999999998e-05  0.
-9.408609388210253e-08 2.244999999999998e-05  0.
-3.320169315861651e-07 2.244999999999998e-05  0.
-9.074424020313226e-07 2.244999999999998e-05  0.
-1.8935704756816541e-06 2.244999999999998e-05  0.
-3.0909370602270337e-06 2.244999999999998e-05  0.
-4.381805327252234e-06 2.244999999999998e-05  0.
-6.019042571664869e-06 2.244999999999998e-05  0.
-7.672114606426185e-06 2.244999999999998e-05  0.
-8.776122830244621e-06 2.244999999999998e-05  0.
-1.0246218401309548e-05 2.244999999999998e-05  0.
</DataArray>
<DataArray type="Float64" Name="sigma_xx" NumberOfComponents="1" format="ascii" >
0.0064970251401064135 
0.0064970251401064135 
0.0064970251401064135 
0.0064970251401064135 
0.0064970251401064135 
0.006496725379889765 
0.006496125859456467 
0.006494316195926328 
0.006489475623538962 
0.006479439207396351 
0.0064586780368358606 
0.006417211206866111 
0.0063419935969477575 
0.006214528891490543 
0.006010836273162566 
0.005703848504623464 
0.005267331015801345 
0.0046809334186548295 
0.003923594782406779 
0.0027058022489256915 
0.0019125145911402786 
0.05490841115118881 
0.05490841115118881 
0.054908333435577085 
0.05490818355546876 
0.054907961510863836 
0.05490668475438552 
0.054902704604842235 
0.05489123600099786 
0.054861465370592534 
0.054791299275436224 
0.05463822172480091 
0.054329724052948315 
0.05375340172975028 
0.052749804524410124 
0.05111335243945801 
0.04860729041489263 
0.04499348116304701 
0.04007409959427831 
0.03366567025153698 
0.023656460124144008 
0.01724879128417455 
0.7373447408198783 
0.7373447408198783 
0.73734459093977 
0.7373440746860636 
0.7373416988087909 
0.7373313959391223 
0.7372952637307859 
0.7371834864766666 
0.7368750443159653 
0.7361053266929927 
0.734357086251691 
0.7307147886770335 
0.7237059951314959 
0.7111852662333715 
0.6903281279946325 
0.6578118050271085 
0.6102249650030698 
0.5446442630230306 
0.4582831336641389 
0.3221433841904541 
0.2347605110308847 
8.692915964836342 
8.692915964836342 
8.692915531849362 
8.692912811802952 
8.692897179862765 
8.692824732259293 
8.69254439539446 
8.69160592942286 
8.688838681880636 
8.681557178702445 
8.664258149826406 
8.626818615020678 
8.552429198172003 
8.415906405101477 
8.183277733220248 
7.813702063153013 
7.264324830558164 
6.497434101859765 
5.4756113088139085 
3.844310630940482 
2.7928668822063667 
89.50231049631438 
89.50231042414988 
89.50230860338412 
89.5022951585833 
89.50221145886947 
89.50178097544278 
89.49993991480551 
89.4932263240111 
89.47199161557504 
89.41271702478379 
89.26483665572246 
88.93134638698893 
88.24566843368406 
86.95071050390798 
84.6910619078933 
81.0296552300471 
75.49811506524226 
67.6730114723689 
57.11551204212737 
40.029177419964576 
28.966859949575138 
796.2315109688586 
796.2315103082759 
796.231503652489 
796.2314498954902 
796.2310766829182 
796.2289368501628 
796.2187648979933 
796.178201234454 
796.0396519013366 
795.6277015663812 
794.5440359202746 
791.9914909337853 
786.549534359526 
775.9611055507817 
757.0239647231023 
725.715116287051 
677.6306619132864 
608.6856548903617 
514.4325501638123 
359.63329711174987 
258.9339298586512 
6043.693996427011 
6043.693994378649 
6043.693973267758 
6043.69378635061 
6043.6923673856645 
6043.683384732155 
6043.636169617004 
6043.429394442243 
6042.665003580526 
6040.233758103363 
6033.476118244562 
6016.813989867529 
5979.948222109564 
5906.00337774527 
5770.468550100881 
5541.8860295974855 
5185.181468589371 
4666.977474640508 
3948.817483032106 
2750.6843075397737 
1967.3462865132933 
38553.557825260476 
38553.557820158996 
38553.557760828684 
38553.5571899298 
38553.552503894905 
38553.52016505219 
38553.334029633996 
38552.44304069581 
38548.873865701375 
38536.72962612353 
38501.014652075886 
38408.85190098952 
38197.26274049971 
37760.26516633944 
36940.44783954241 
35532.475256108686 
33303.74076283559 
30027.886887892808 
25425.43777582783 
17619.757304149214 
12490.087027938742 
202915.9552721426 
202915.95526007446 
202915.9551088288 
202915.95355644837 
202915.93992073357 
202915.83853919152 
202915.20669235557 
202911.92750610522 
202897.75529855327 
202846.26653868647 
202686.43332809472 
202255.64569277814 
201232.53159847192 
199063.81043117418 
194915.80784407316 
187690.2357919568 
176134.49657668528 
159006.03659483863 
134630.0955196111 
92597.38897128274 
64833.71871811581 
860976.9212533531 
860976.9212268577 
860976.9208754445 
860976.917074174 
860976.8816929428 
860976.6012734664 
860974.7290055144 
860964.2935522685 
860915.9604042429 
860729.3194004713 
860120.8270880175 
858416.8496689106 
854255.9734370927 
845265.1773468486 
827864.9004037406 
797364.7007600891 
748468.6200697669 
675864.258571293 
571465.1100721611 
388637.7484701996 
267328.80733795755 
2857288.9257034487 
2857288.925649509 
2857288.924902978 
2857288.9164570672 
2857288.833840648 
2857288.142276403 
2857283.2436543503 
2857254.193315552 
2857111.1222879267 
2856527.2654472217 
2854539.215243362 
2848802.537209942 
2834527.747395825 
2803440.0052171024 
2743306.0517105637 
2638715.4188949815 
2473011.5824734904 
2229629.528987486 
1877972.8297351995 
1254900.6987785406 
840323.2362754749 
7123702.847724531 
7123702.847623001 
7123702.846166471 
7123702.829044385 
7123702.654311601 
7123701.122013524 
7123689.706800987 
7123618.308514634 
7123247.366627136 
7121657.742683724 
7116035.854674396 
7099448.221415969 
7057879.489620877 
6967917.631970037 
6797177.701924643 
6508715.956874263 
6068010.704656024 
5442093.417256863 
4543314.804146487 
2947934.1366899405 
1887759.3225908969 
12689746.59894709 
12689746.598769657 
12689746.59615148 
12689746.5643578 
12689746.228046283 
12689743.160474923 
12689719.311923508 
12689563.247371504 
12688714.416561194 
12684919.151155092 
12671051.024925813 
12629482.065994527 
12525746.276373817 
12306169.285279453 
11906194.090219215 
11268712.302296054 
10363751.009862956 
9167934.804011103 
7495972.538060844 
4599807.54046088 
2700619.8571446734 
15487331.724422332 
15487331.724134305 
15487331.719784409 
15487331.665489633 
15487331.073558198 
15487325.493047826 
15487280.525679095 
15486974.843492702 
15485246.436001195 
15477232.269202251 
15447116.598056154 
15355837.577714724 
15131044.249143036 
14673129.969875814 
13889704.115450785 
12752177.262499612 
11320293.95780888 
9656407.149185773 
7462508.0897212345 
4018480.6201466913 
1881411.8947503706 
13740269.241586508 
13740269.241150696 
13740269.234441105 
13740269.148748202 
13740268.190663047 
13740258.905989261 
13740181.823841035 
13739640.909025908 
13736481.061327577 
13721370.130647568 
13663204.881645408 
13485431.870407557 
13055761.637014393 
12225539.573061751 
10921636.42463169 
9254316.386238161 
7490295.315938158 
5771605.297849469 
3684512.8697442445 
1233178.861238471 
18268.52863426594 
12509454.88200543 
12509454.881389 
12509454.8717468 
12509454.746252477 
12509453.313818831 
12509439.114990585 
12509318.312173456 
12508448.154712098 
12503226.189341675 
12477601.489191795 
12376933.62551249 
12067192.189305898 
11334015.514326025 
10005214.131700816 
8138704.315598985 
6104977.584150502 
4394115.3623856865 
2933675.0526155094 
1177699.1301531792 
-68472.11419785098 
-301325.6918980333 
13654453.70820166 
13654453.707385622 
13654453.694449477 
13654453.523518402 
13654451.539950168 
13654431.520543098 
13654257.838487893 
13652980.432091037 
13645147.303122127 
13605900.423101526 
13449115.55683419 
12964077.990313997 
11839029.908616215 
9937861.877701115 
7617823.22299763 
5540792.315840323 
4142164.382777511 
2861652.5752088786 
1117165.5861328098 
-7575.523031852528 
-163614.08959340316 
13488983.359010294 
13488983.357996665 
13488983.341765232 
13488983.124805614 
13488980.575177247 
13488954.487017311 
13488724.763500195 
13487008.117650341 
13476306.500352893 
13421821.062852949 
13201297.754484035 
12516080.86921034 
10954133.230717652 
8488180.791839033 
5940876.742986187 
4155272.951803999 
2934095.452995506 
1562953.6599853416 
-207313.4571158567 
-885682.2775784476 
-596040.8775701832 
13210462.5388989 
13210462.537716363 
13210462.518645134 
13210462.261648426 
13210459.214611288 
13210427.734185802 
13210147.612322338 
13208030.804858647 
13194680.098777577 
13125929.865681315 
12845045.089686072 
11969361.062948726 
9998947.873590566 
7059818.202817689 
4509350.97799789 
3214793.4865231323 
1858601.8288360229 
198080.85882296864 
-905082.3419486729 
-470793.27498123725 
397458.7965083295 
13496078.823464103 
13496078.822167419 
13496078.801166778 
13496078.516796868 
13496075.127389368 
13496039.908165183 
13495724.563113196 
13493325.685159607 
13478090.798774125 