<?xml version="1.0"?>
<VTKFile type="UnstructuredGrid" version="0.1" byte_order="LittleEndian" compressor="vtkZLibDataCompressor">
<UnstructuredGrid>
<Piece NumberOfPoints="441" NumberOfCells="400">
<PointData>
<DataArray type="Float64" Name="displacement" NumberOfComponents="3" format="ascii" >
0.0 -2.942377229448252e-32  0.
4.919606226211655e-31 5.113861355511579e-31  0.
7.093514183419153e-31 -2.737777162058789e-31  0.
4.543128656249367e-31 4.1769788300791205e-33  0.
2.4975079510775307e-31 -2.036216853784494e-31  0.
1.4378810813726493e-33 -4.548187482003543e-32  0.
-2.0910021531842115e-31 -1.649066072363337e-31  0.
-9.932297760060118e-31 -6.178278160067367e-31  0.
-3.701061726230815e-30 -2.0835188497676227e-30  0.
-2.0399768426606993e-29 -1.4579374678639958e-29  0.
-9.279378038961088e-29 -5.797617011258924e-29  0.
-2.4096436061013107e-28 -8.931246797462543e-29  0.
-5.543371467266213e-28 -2.252660398611419e-28  0.
-1.0786867095196437e-27 -2.972373213673904e-28  0.
-1.7348689920356355e-27 -3.694142352402895e-28  0.
-2.504292966568892e-27 -3.8015609888531557e-28  0.
-3.0627046101205434e-27 -1.8806505366595601e-28  0.
-3.384877962456894e-27 -1.4750902444807438e-28  0.
-3.2671563406432576e-27 3.1403828081512014e-28  0.
-2.0936004323981453e-27 6.25593070859716e-28  0.
-1.2655639049057402e-27 1.6655454357607315e-27  0.
0.0 2.0471080424986396e-28  0.
1.7939520338523415e-28 -3.6657205133396557e-29  0.
1.487045837554473e-28 2.621325547224556e-29  0.
1.0049284133762776e-28 -8.4422847114182e-29  0.
7.423059587002695e-30 -7.283322147973032e-30  0.
-1.6741120996933208e-30 -2.084654488518901e-30  0.
-1.083499621449638e-29 -7.284660691827806e-30  0.
-9.019299961373193e-29 -7.241761455956792e-29  0.
-3.765470521200687e-28 -2.176622161290349e-28  0.
-1.1851760976262428e-27 -6.053724840247687e-28  0.
-4.8309759463908324e-27 -3.123889524986369e-27  0.
-1.9843036834582724e-26 -1.1878707575973532e-26  0.
-4.943977896939098e-26 -1.8663288710881023e-26  0.
-1.2914274641405972e-25 -6.299225030002377e-26  0.
-3.0164926178217207e-25 -1.1277997365517504e-25  0.
-6.567516988732375e-25 -1.652558218594776e-25  0.
-7.782345237189132e-25 3.4560312264671486e-26  0.
-7.431798210579223e-25 -4.336435278300041e-26  0.
-7.9416832920234185e-25 1.8381682115270617e-26  0.
-5.367542951625403e-25 1.3994392502939113e-25  0.
-3.6060317946272594e-25 4.521539626937523e-25  0.
0.0 1.940655096046735e-21  0.
1.3138630724810102e-25 1.9405567134460565e-21  0.
4.5742214474690797e-26 1.940512862184147e-21  0.
2.2969382172639097e-27 1.9405555747739884e-21  0.
5.997121046347451e-29 1.9405578125552377e-21  0.
-8.233754279754997e-29 1.9405578102154916e-21  0.
-1.0822363628525078e-27 1.9405569593302623e-21  0.
-7.601960478965594e-27 1.9405521536225483e-21  0.
-5.932800016583468e-26 1.9405093905707394e-21  0.
-2.1883121863468623e-25 1.940446157778095e-21  0.
-5.908408800021171e-25 1.9402852170939436e-21  0.
-2.06896526790972e-24 1.9393879170446076e-21  0.
-7.465176624741373e-24 1.936316730877216e-21  0.
-1.998006068053612e-23 1.9336279200549912e-21  0.
-5.343115853306112e-23 1.9202010294039024e-21  0.
-1.9748567824893178e-22 1.8483837061554013e-21  0.
-2.0996486587210284e-22 1.2425389367893794e-21  0.
-2.1577138427238736e-22 1.0792789836247944e-21  0.
-3.1552539157464216e-22 5.896224191409756e-22  0.
-2.3718190251372365e-22 2.1552461566965083e-22  0.
-2.882179069024947e-22 3.4828898201154983e-22  0.
0.0 2.187589854253849e-19  0.
1.3026629135548034e-23 2.1878975766434456e-19  0.
3.0440421153714075e-25 2.1879749451770965e-19  0.
-5.2974529884401956e-27 2.1879790452118615e-19  0.
5.032076294672812e-28 2.187979011110231e-19  0.
-2.9038927071973936e-27 2.1879789985978674e-19  0.
-4.6538543424324357e-26 2.1879785857728878e-19  0.
-4.488066649513668e-25 2.187975208527963e-19  0.
-4.3289826378198764e-24 2.1879432820098024e-19  0.
-2.827028093371479e-23 2.1878175165831095e-19  0.
-8.209041378814272e-23 2.187660811798295e-19  0.
-2.297431883550912e-22 2.1864852874276304e-19  0.
-9.48227012171332e-22 2.174742494317349e-19  0.
-2.379698932001452e-21 2.1488774557548843e-19  0.
-3.0285384654354843e-21 2.1030186458703774e-19  0.
-6.281713220970376e-21 1.998826661802745e-19  0.
-8.239074932085666e-21 1.862969859612549e-19  0.
-1.1458257232366783e-20 1.6716039384435974e-19  0.
-1.568520921784214e-20 1.4161958134543676e-19  0.
-1.806127490219395e-20 1.096800916222494e-19  0.
-5.824869362433399e-20 1.1218623357098811e-19  0.
0.0 6.8951838913343905e-18  0.
-1.0068282785454018e-23 6.8963200366697496e-18  0.
-4.166202011682859e-24 6.896358485997933e-18  0.
8.993420527914602e-26 6.8963545481875495e-18  0.
-1.0465527472197272e-26 6.8963546244430455e-18  0.
-1.5744576292856461e-25 6.896354490123183e-18  0.
-8.695761281905301e-25 6.896353618239751e-18  0.
-2.536247604455451e-23 6.896332236975358e-18  0.
-1.6041311468725944e-22 6.896250035960388e-18  0.
-1.664185469562871e-21 6.894370312381834e-18  0.
-4.249038881131519e-21 6.888342749591172e-18  0.
-1.2145585919518874e-20 6.871891074229964e-18  0.
-2.693723313173792e-20 6.835362452159252e-18  0.
-5.403678509010853e-20 6.762210559376373e-18  0.
-9.929472913458215e-20 6.6132652852908155e-18  0.
-1.6413608571662005e-19 6.372046210144117e-18  0.
-2.505655278583022e-19 5.9865824106991986e-18  0.
-3.5943546526121537e-19 5.418620587674363e-18  0.
-4.78626336467189e-19 4.6334431052679205e-18  0.
-6.269125118344947e-19 3.6604261154699786e-18  0.
-1.958186262875302e-18 3.715093365512868e-18  0.
0.0 1.8621462550345052e-16  0.
-3.7514182973286924e-22 1.8621071966478866e-16  0.
1.1559173998591589e-23 1.862104066740133e-16  0.
-5.439089892060244e-25 1.862104050869658e-16  0.
-3.023016798262079e-26 1.8621040465896263e-16  0.
-4.303200432778955e-24 1.862104000479541e-16  0.
-6.964250202783669e-23 1.862103485137797e-16  0.
-1.0359502301639024e-21 1.8620961718607144e-16  0.
-7.909956291616566e-21 1.8619957609936787e-16  0.
-3.132131739929238e-20 1.8616529921401993e-16  0.
-9.948372569721158e-20 1.8604819420760432e-16  0.
-2.5987192647601165e-19 1.8572376832281572e-16  0.
-6.139070563160593e-19 1.849226735238607e-16  0.
-1.283458037396048e-18 1.8318664085569726e-16  0.
-2.4286275345144596e-18 1.7976765931907404e-16  0.
-4.188628180621262e-18 1.7366412691288252e-16  0.
-6.631363648062605e-18 1.6363723551651088e-16  0.
-9.67045815770327e-18 1.4851751094287256e-16  0.
-1.3097281047803996e-17 1.2742448414395552e-16  0.
-1.7378396426546547e-17 1.010051519335568e-16  0.
-5.459615615483241e-17 1.0302075871956097e-16  0.
0.0 4.398146375961228e-15  0.
-8.23942554548071e-22 4.3981535394935695e-15  0.
-1.1573245905013102e-22 4.398154533161196e-15  0.
3.076694501346825e-25 4.398154341702302e-15  0.
-2.5773540295620786e-25 4.398154341194541e-15  0.
-1.2937826901505286e-23 4.398154317653493e-15  0.
-1.0923125586220734e-21 4.398153156926079e-15  0.
-1.8651976679941887e-20 4.398134211268535e-15  0.
-1.11138334589851e-19 4.39802574482787e-15  0.
-4.774846540143773e-19 4.397512864212294e-15  0.
-1.631895324093331e-18 4.395654100484109e-15  0.
-4.7433674628200474e-18 4.389964102096699e-15  0.
-1.18873092708205e-17 4.375008462334004e-15  0.
-2.6347772405996468e-17 4.340407028326692e-15  0.
-5.217886743065266e-17 4.269019442163385e-15  0.
-9.340198114254889e-17 4.136156041323501e-15  0.
-1.5221076004860362e-16 3.9113736292426995e-15  0.
-2.2736438142838656e-16 3.56326647953379e-15  0.
-3.132800755538912e-16 3.0679479935989432e-15  0.
-4.223665716776797e-16 2.4401186048364527e-15  0.
-1.3262998242478445e-15 2.4977247890121164e-15  0.
0.0 8.995008687532239e-14  0.
-3.1210893126095565e-21 8.995008329974454e-14  0.
3.533778676338465e-23 8.995008004102639e-14  0.
-2.7125581552917937e-24 8.995008011268272e-14  0.
-2.8120077704414016e-24 8.995008010622961e-14  0.
-1.5550915664992438e-22 8.99500799282262e-14  0.
-9.465569379252925e-21 8.995007176741422e-14  0.
-1.384219871076049e-19 8.994996635249629e-14  0.
-1.0678352906561625e-18 8.994900451136179e-14  0.
-5.477805963335054e-18 8.994355863965288e-14  0.
-2.194996477268993e-17 8.9920099863082e-14  0.
-7.082406493149346e-17 8.983938330475672e-14  0.
-1.940393303920843e-16 8.960611303546891e-14  0.
-4.589037818710303e-16 8.902600294134902e-14  0.
-9.59245789709445e-16 8.775777675692637e-14  0.
-1.7893957991542183e-15 8.528756568260162e-14  0.
-3.0159996722748482e-15 8.095259477487128e-14  0.
-4.6212105919353794e-15 7.404410041292032e-14  0.
-6.4973626900633935e-15 6.399654996950936e-14  0.
-8.917104061552592e-15 5.109592342571676e-14  0.
-2.7951824927519715e-14 5.2518864696504235e-14  0.
0.0 1.5748354013436052e-12  0.
-2.5411925387366357e-21 1.5748353914720681e-12  0.
-6.667481178291958e-23 1.5748353935330676e-12  0.
6.8106336278754e-24 1.5748353936084822e-12  0.
-6.212496513625657e-24 1.5748353935954418e-12  0.
-1.4929308364653672e-21 1.5748353908659083e-12  0.
-4.9140098926707023e-20 1.574835359204188e-12  0.
-6.9172692655126e-19 1.5748348761860555e-12  0.
-6.8002259035528965e-18 1.5748295550627753e-12  0.
-4.815685355691999e-17 1.574786578010687e-12  0.
-2.292327566071138e-16 1.574560065172012e-12  0.
-8.597965981848234e-16 1.5736445412943725e-12  0.
-2.5999758167192455e-15 1.5706829014733537e-12  0.
-6.687446028220502e-15 1.5626285011760894e-12  0.
-1.484321288633946e-14 1.5437842284082963e-12  0.
-2.9115038947371514e-14 1.505044865160709e-12  0.
-5.091447539038586e-14 1.4341564482919585e-12  0.
-8.038302809543165e-14 1.3174280031510828e-12  0.
-1.1551613029407954e-13 1.1434339781372212e-12  0.
-1.6186993972781374e-13 9.169387827620894e-13  0.
-5.055093463999107e-13 9.471290689339304e-13  0.
0.0 2.3287785646545627e-11  0.
-1.8463334636994854e-22 2.3287785658049276e-11  0.
1.1026769200072876e-22 2.3287785659684877e-11  0.
4.285030186530681e-24 2.3287785659611852e-11  0.
-1.9689287693281252e-23 2.328778565958068e-11  0.
-6.883897849310174e-21 2.3287785655906045e-11  0.
-1.7976448257757063e-19 2.3287785552898435e-11  0.
-2.695760574405036e-18 2.3287783896621324e-11  0.
-3.196401076560431e-17 2.328776204829674e-11  0.
-2.8646950736362566e-16 2.3287541540897913e-11  0.
-1.8394960740562967e-15 2.3285919473668225e-11  0.
-8.09283359178443e-15 2.3277991702567223e-11  0.
-2.822072904177328e-14 2.324809954576027e-11  0.
-7.953708729611581e-14 2.315768352415912e-11  0.
-1.9095044652462953e-13 2.2927570866224046e-11  0.
-3.954804777329796e-13 2.2423837835158363e-11  0.
-7.237376142934716e-13 2.1455552445108195e-11  0.
-1.179718410366752e-12 1.980058421839187e-11  0.
-1.740078872565946e-12 1.72642480525012e-11  0.
-2.4947152980481888e-12 1.3914437811432326e-11  0.
-7.745947861019422e-12 1.4459681119914969e-11  0.
0.0 2.8623438086587253e-10  0.
-1.991722392202302e-21 2.8623438087097546e-10  0.
9.001657273097169e-23 2.862343808689287e-10  0.
-1.3244427981604118e-23 2.8623438086926583e-10  0.
-2.565107363008802e-22 2.8623438086896815e-10  0.
-2.182123567135798e-20 2.862343808572671e-10  0.
-5.232667113710775e-19 2.862343805996257e-10  0.
-8.681723309959752e-18 2.86234375923397e-10  0.
-1.1835010199691687e-16 2.8623430538787295e-10  0.
-1.2646460293117996e-15 2.8623346135011237e-10  0.
-1.0163133011548768e-14 2.862257816039627e-10  0.
-5.870335694012832e-14 2.861747750822014e-10  0.
-2.3705283560105333e-13 2.85945224100286e-10  0.
-7.629355133780534e-13 2.8514340757078664e-10  0.
-1.990548879534991e-12 2.828905172665228e-10  0.
-4.429684002727757e-12 2.7756044140284405e-10  0.
-8.502925484186674e-12 2.6671558242906534e-10  0.
-1.4421917480377359e-11 2.473570843896217e-10  0.
-2.1856367127703238e-11 2.1674983059709295e-10  0.
-3.221561228771879e-11 1.7573392695682944e-10  0.
-9.90094693177012e-11 1.8398440613782022e-10  0.
0.0 2.868268851059063e-09  0.
-1.6789951704079843e-21 2.8682688510464254e-09  0.
-5.796259079814339e-22 2.8682688510515634e-09  0.
3.736284680722185e-23 2.8682688510510456e-09  0.
-7.375613875974904e-22 2.868268851050569e-09  0.
-5.671901321151585e-20 2.8682688510273336e-09  0.
-1.3072909980915958e-18 2.868268850462694e-09  0.
-2.381290975993738e-17 2.8682688392163347e-09  0.
-3.6104674168007875e-16 2.868268651921965e-09  0.
-4.4066095894899e-15 2.8682661112635034e-09  0.
-4.1920724867541603e-14 2.868238891047141e-09  0.
-2.9893396009260315e-13 2.8680179061312963e-09  0.
-1.5373488148834295e-12 2.8667069104983437e-09  0.
-5.6510155617280415e-12 2.8613202604773747e-09  0.
-1.663541262724931e-11 2.844039893925451e-09  0.
-3.985049296974501e-11 2.799303566287971e-09  0.
-8.150936801190558e-11 2.701723702276692e-09  0.
-1.4389208429392438e-10 2.5187210347462647e-09  0.
-2.2560033028602031e-10 2.2190189297053207e-09  0.
-3.424768774314798e-10 1.8119634522988653e-09  0.
-1.0370403448725325e-09 1.9153262483888783e-09  0.
0.0 2.2885084617167942e-08  0.
-5.6290113572637226e-21 2.28850846171583e-08  0.
2.150140547131061e-21 2.2885084617154948e-08  0.
-3.5641034199069734e-22 2.28850846171554e-08  0.
-1.8772933137373357e-21 2.2885084617153982e-08  0.
-1.2315691899228085e-19 2.288508461711027e-08  0.
-2.8889587345707754e-18 2.2885084616023984e-08  0.
-5.670489621468437e-17 2.288508459278221e-08  0.
-9.352254201904687e-16 2.2885084172967284e-08  0.
-1.2650001143824175e-14 2.288507789547052e-08  0.
-1.367442672716637e-13 2.2885002041836863e-08  0.
-1.1442191683726605e-12 2.2884282854094345e-08  0.
-7.147001576701968e-12 2.2879138458856528e-08  0.
-3.2327047590744464e-11 2.2852237014768358e-08  0.
-1.0706355845965998e-10 2.2752403656467657e-08  0.
-2.850374275331285e-10 2.2461497411416374e-08  0.
-6.206144798824389e-10 2.177477531175369e-08  0.
-1.1551363450527081e-09 2.0408810164915545e-08  0.
-1.8710488814241482e-09 1.808488864304451e-08  0.
-2.9467543409190492e-09 1.4899041837622927e-08  0.
-8.69958752105025e-09 1.594586730771673e-08  0.
0.0 1.4118070714415733e-07  0.
-6.7509119007551636e-21 1.4118070714416222e-07  0.
1.699090771071496e-21 1.4118070714415698e-07  0.
-2.228858541433105e-22 1.4118070714415598e-07  0.
-4.615280777239958e-21 1.4118070714415478e-07  0.
-2.3606044185119488e-19 1.4118070714408318e-07  0.
-5.720644781694713e-18 1.4118070714222612e-07  0.
-1.1908081575312886e-16 1.411807071002451e-07  0.
-2.1001124527340847e-15 1.4118070629240585e-07  0.
-3.0790836126086505e-14 1.411806932580236e-07  0.
-3.672492855041108e-13 1.4118052038755964e-07  0.
-3.4703493654544845e-12 1.4117868214616118e-07  0.
-2.516567496222519e-11 1.4116347546650436e-07  0.
-1.355073945007312e-10 1.4106914036261884e-07  0.
-5.311861767927563e-10 1.4064150324801873e-07  0.
-1.5645410609282348e-09 1.392282342836063e-07  0.
-3.7131271109767304e-09 1.355421533200868e-07  0.
-7.260846631643189e-09 1.2772324027202617e-07  0.
-1.2261690252536166e-08 1.1386345133830652e-07  0.
-2.003012484703931e-08 9.489024202209703e-08  0.
-5.694448234149336e-08 1.0330741596694487e-07  0.
0.0 6.490968822169469e-07  0.
-3.2026692286066884e-21 6.490968822169563e-07  0.
1.2975801258352897e-21 6.49096882216952e-07  0.
-1.0507857970147503e-22 6.490968822169551e-07  0.
-1.022675592626186e-20 6.490968822169496e-07  0.
-4.063183462296058e-19 6.49096882216849e-07  0.
-1.0231282955299652e-17 6.490968822140138e-07  0.
-2.2296130838572656e-16 6.490968821474798e-07  0.
-4.147948647746997e-15 6.490968808009937e-07  0.
-6.479942368181774e-14 6.490968577361396e-07  0.
-8.343227495990885e-13 6.490965289465188e-07  0.
-8.653073081464096e-12 6.49092711081085e-07  0.
-7.032650174850664e-11 6.490575199936366e-07  0.
-4.338065963501859e-10 6.488080392242291e-07  0.
-1.973646983289299e-09 6.474931831861225e-07  0.
-6.585868627595546e-09 6.424366297670493e-07  0.
-1.6960152286426497e-08 6.278439961220887e-07  0.
-3.52692167569133e-08 5.945188545042841e-07  0.
-6.184503347806424e-08 5.33215325032588e-07  0.
-1.0532302344745737e-07 4.515296388412345e-07  0.
-2.810345562325375e-07 5.033522661289523e-07  0.
0.0 2.1273698248107545e-06  0.
-4.020787528479152e-22 2.1273698248107503e-06  0.
2.054557576259929e-21 2.1273698248107575e-06  0.
-5.790457021229805e-22 2.1273698248107553e-06  0.
-1.7849769975375826e-20 2.127369824810753e-06  0.
-6.38539683499537e-19 2.1273698248106118e-06  0.
-1.6584446497100926e-17 2.1273698248068382e-06  0.
-3.7486945500555093e-16 2.1273698247145582e-06  0.
-7.274342323399143e-15 2.127369822771545e-06  0.
-1.1943207702540622e-13 2.127369787885324e-06  0.
-1.6315964714927736e-12 2.12736926202467e-06  0.
-1.8175605778051818e-11 2.127362728104348e-06  0.
-1.6107180327012863e-10 2.1272973551637897e-06  0.
-1.1028483291487716e-09 2.1267849358744474e-06  0.
-5.6494990988344985e-09 2.123743744395474e-06  0.
-2.1166708814205437e-08 2.1105030707943783e-06  0.
-5.8856638318380434e-08 2.0685593894352715e-06  0.
-1.2987511633957753e-07 1.966231510285363e-06  0.
-2.3643916005456485e-07 1.7735711910628632e-06  0.
-4.1807847506648094e-07 1.5385848535892268e-06  0.
-1.0064115469579021e-06 1.7730883311125977e-06  0.
0.0 4.774351160959427e-06  0.
-5.699148014195375e-22 4.774351160959413e-06  0.
2.78748726648456e-21 4.7743511609594125e-06  0.
-9.320260830063693e-23 4.774351160959417e-06  0.
-2.453900337418254e-20 4.77435116095941e-06  0.
-9.184245939679403e-19 4.774351160959255e-06  0.
-2.4438839671696606e-17 4.774351160954845e-06  0.
-5.684607019982107e-16 4.774351160844278e-06  0.
-1.139684674533315e-14 4.774351158441816e-06  0.
-1.944010869524673e-13 4.774351113707692e-06  0.
-2.7785845740550216e-12 4.774350409620886e-06  0.
-3.267109011347006e-11 4.774341201644e-06  0.
-3.0903015626647115e-10 4.774243125868661e-06  0.
-2.2881601364827667e-09 4.7734145144342414e-06  0.
-1.2847667422623613e-08 4.768027143973657e-06  0.
-5.296879207902623e-08 4.742092587751315e-06  0.
-1.583285552645689e-07 4.652591833119785e-06  0.
-3.6007966621206014e-07 4.4304070636164645e-06  0.
-6.836455988036388e-07 4.019156604996764e-06  0.
-1.2285736694119848e-06 3.6293907573204886e-06  0.
-2.5239085157528896e-06 4.3583910581388135e-06  0.
0.0 7.468380196337908e-06  0.
3.1670289962622594e-22 7.468380196337924e-06  0.
4.132810889748768e-21 7.4683801963379205e-06  0.
2.1764536382053938e-21 7.46838019633792e-06  0.
-3.3045865217367367e-20 7.468380196337917e-06  0.
-1.210997283973407e-18 7.468380196337768e-06  0.
-3.288383111426185e-17 7.468380196333365e-06  0.
-7.811840389211557e-16 7.468380196220802e-06  0.
-1.6047244594873703e-14 7.468380193716892e-06  0.
-2.815863464707938e-13 7.468380145801227e-06  0.
-4.161057868552561e-12 7.4683793672553564e-06  0.
-5.090377552302411e-11 7.468368788095918e-06  0.
-5.049200339609936e-10 7.468250885603087e-06  0.
-3.958864973131408e-09 7.467197081815025e-06  0.
-2.3787776492829003e-08 7.459872578298652e-06  0.
-1.0574865766067355e-07 7.421678577661732e-06  0.
-3.375114099218061e-07 7.279401931295076e-06  0.
-7.835485803901449e-07 6.921553185990147e-06  0.
-1.4959388506116802e-06 6.351694503489782e-06  0.
-2.6677335859817943e-06 6.132813226694705e-06  0.
-4.379336698181337e-06 7.52061049245016e-06  0.
0.0 9.618002387942373e-06  0.
4.9515225020078615e-23 9.618002387942374e-06  0.
-1.8677125054294774e-21 9.618002387942374e-06  0.
-3.343402968113316e-21 9.618002387942388e-06  0.
-4.302183567728159e-20 9.61800238794238e-06  0.
-1.4812152225712803e-18 9.618002387942258e-06  0.
-4.0560067280420925e-17 9.61800238793865e-06  0.
-9.77940238056479e-16 9.61800238784518e-06  0.
-2.0430470066540637e-14 9.618002385732648e-06  0.
-3.6558781803162884e-13 9.618002344555253e-06  0.
-5.527753946512921e-12 9.618001660693976e-06  0.
-6.94868075855592e-11 9.617992127974891e-06  0.
-7.120443125811641e-10 9.61788248138324e-06  0.
-5.806358752484222e-09 9.616865090461903e-06  0.
-3.657716490854126e-08 9.609444281073584e-06  0.
-1.717974769545238e-07 9.568473058534074e-06  0.
-5.796341326664056e-07 9.405966855381537e-06  0.
-1.3845929636023834e-06 8.987676454629955e-06  0.
-2.553081049464763e-06 8.48235005769932e-06  0.
-4.243528865413016e-06 8.792070913662366e-06  0.
-5.608381726062817e-06 1.0202735001911142e-05  0.
0.0 1.2079114568739814e-05  0.
7.367169806044528e-22 1.2079114568739821e-05  0.
8.771536624958653e-22 1.2079114568739821e-05  0.
9.60909335294633e-22 1.207911456873982e-05  0.
-4.594332070713279e-20 1.2079114568739811e-05  0.
-1.6635914693240502e-18 1.2079114568739738e-05  0.
-4.5975801497627e-17 1.2079114568737705e-05  0.
-1.1180875904773433e-15 1.207911456868447e-05  0.
-2.3591515361812618e-14 1.2079114567469734e-05  0.
-4.270350930697196e-13 1.2079114543526759e-05  0.
-6.544323326848575e-12 1.2079114140794409e-05  0.
-8.358420382022313e-11 1.2079108438941544e-05  0.
-8.729726446988669e-10 1.2079041669329714e-05  0.
-7.2844433508730055e-09 1.2078407539408011e-05  0.
-4.720059722713845e-08 1.2073653108809926e-05  0.
-2.2943275329287587e-07 1.2046408858287393e-05  0.
-8.051791427116369e-07 1.1933694664406638e-05  0.
-1.9792670610349995e-06 1.1639986375702645e-05  0.
-3.4764926844811713e-06 1.1372489741036054e-05  0.
-4.985552872095525e-06 1.1885611629329336e-05  0.
-6.303873014808514e-06 1.2547127878911935e-05  0.
0.0 1.4450000000000043e-05  0.
-4.897810485846946e-21 1.4450000000000043e-05  0.
5.661117289231953e-21 1.4450000000000043e-05  0.
-2.0466162471571225e-21 1.4450000000000043e-05  0.
-4.439301438124097e-20 1.4450000000000043e-05  0.
-1.7298840580721111e-18 1.4450000000000043e-05  0.
-4.793682455114957e-17 1.4450000000000043e-05  0.
-1.1689405489132987e-15 1.4450000000000043e-05  0.
-2.4745687569960106e-14 1.4450000000000043e-05  0.
-4.496318076686917e-13 1.4450000000000043e-05  0.
-6.9212073278586e-12 1.4450000000000043e-05  0.
-8.886288180058716e-11 1.4450000000000043e-05  0.
-9.339234620854573e-10 1.4450000000000043e-05  0.
-7.85276818901981e-09 1.4450000000000043e-05  0.
-5.136080220254497e-08 1.4450000000000043e-05  0.
-2.5262994493460087e-07 1.4450000000000043e-05  0.
-8.995217589278193e-07 1.4450000000000043e-05  0.
-2.2375206055842675e-06 1.4450000000000043e-05  0.
-3.840769558109073e-06 1.4450000000000043e-05  0.
-5.0216668404082094e-06 1.4450000000000043e-05  0.
-6.648743140063416e-06 1.4450000000000043e-05  0.
</DataArray>
<DataArray type="Float64" Name="sigma_xx" NumberOfComponents="1" format="ascii" >
0.0 
0.0 
0.0 
0.0 
0.0 
0.0 
0.0 
0.0 
0.0 
0.0 
0.0 
0.0 
0.0 
0.0 
0.0 
0.0 
0.0 
0.0 
0.0 
0.0 
0.0 
0.0 
0.0 
0.0 
0.0 
0.0 
0.0 
0.0 
0.0 
0.0 
0.0 
0.0 
0.0 
0.0 
0.0 
0.0 
0.0 
0.0 
0.0 
0.0 
0.0 
0.0 
6.217248937900875e-07 
6.217248937900875e-07 
6.217248937900875e-07 
6.217248937900875e-07 
6.217248937900875e-07 
6.217248937900875e-07 
6.217248937900875e-07 
6.217248937900875e-07 
6.217248937900875e-07 
6.217248937900875e-07 
6.217248937900875e-07 
6.217248937900875e-07 
6.217248937900875e-07 
5.440092820663265e-07 
3.885780586188047e-07 
3.108624468950437e-07 
3.108624468950437e-07 
3.108624468950437e-07 
3.108624468950437e-07 
2.3869795029440855e-07 
1.6653345369377343e-07 
1.927347170749271e-05 
1.927347170749271e-05 
1.927347170749271e-05 
1.927347170749271e-05 
1.927347170749271e-05 
1.927347170749271e-05 
1.927347170749271e-05 
1.927347170749271e-05 
1.927347170749271e-05 
1.927347170749271e-05 
1.927347170749271e-05 
1.927347170749271e-05 
1.9123591599168315e-05 
1.881272915227327e-05 
1.8118839761882548e-05 
1.7119639039719907e-05 
1.610378497218789e-05 
1.4399592629388274e-05 
1.2306822227969857e-05 
8.937295348232507e-06 
6.505906924303414e-06 
0.0005206945985491982 
0.0005206945985491982 
0.0005206945985491982 
0.0005206945985491982 
0.0005206945985491982 
0.0005206945985491982 
0.0005206945985491982 
0.0005206945985491982 
0.0005206168829374744 
0.0005203892872174263 
0.0005197897667841287 
0.0005184186413487166 
0.0005151323811958262 
0.0005086153720412765 
0.0004968414568651267 
0.00047693515803359766 
0.00044628745143882026 
0.0004020117572167691 
0.00034191538489380935 
0.00024444335444684373 
0.00018115509092808668 
0.012295386930816218 
0.012295386930816218 
0.012295386930816218 
0.012295386930816218 
0.012295386930816218 
0.012295386930816218 
0.012295386930816218 
0.012295164886211293 
0.012294038009841298 
0.012290496398392744 
0.012279771643974865 
0.012251449854616677 
0.012186318620877042 
0.012051193376549914 
0.011796774668226814 
0.011358036733355444 
0.010660144988960948 
0.009632472597331795 
0.008210815360953912 
0.0058743176989395325 
0.004355149574308824 
0.2513386609948042 
0.2513386609948042 
0.2513386609948042 
0.2513386609948042 
0.2513386609948042 
0.2513386609948042 
0.25133836678570265 
0.2513361463396534 
0.25132437242447725 
0.25127679381675694 
0.25111928647625337 
0.25067290465585745 
0.24957531596925253 
0.24717751734293347 
0.24247096552798542 
0.23407711324807667 
0.22037461300250522 
0.19976148513123343 
0.17073829572389337 
0.12221362810649333 
0.09048740645667402 
4.3972240737488715 
4.3972240737488715 
4.397224151464483 
4.397224229180095 
4.397224229180095 
4.397224157015598 
4.397222469476601 
4.397207725714834 
4.39710612920585 
4.396616343216307 
4.394750080516372 
4.388944441213736 
4.373497902721011 
4.337721432046136 
4.264056818747973 
4.1277341045198295 
3.8984993400159578 
3.545595500531461 
3.039010953997944 
2.175706254048392 
1.6079882980690732 
64.95394060390677 
64.95394060390677 
64.953940759338 
64.95394083705361 
64.953940759338 
64.9539402486354 
64.95393388705747 
64.95386225546793 
64.95324257893562 
64.94935166911905 
64.93208167812622 
64.87087623741058 
64.69312506807154 
64.25056059411457 
63.290017493500244 
61.43497818245078 
58.213516679339584 
53.12581961014472 
45.66632385016865 
32.684365849910954 
24.089086064771323 
797.0469221296736 
797.0469221296736 
797.0469222073891 
797.0469222073891 
797.0469221296736 
797.0469206752814 
797.0468993701016 
797.046622175168 
797.0437795934424 
797.0217803965339 
796.8977462080582 
796.3931814791711 
794.7430559152033 
790.2996174480311 
780.0135572472163 
759.2192195926548 
721.7651306623549 
660.9911962357493 
569.7919926550552 
407.37316887307065 
299.13216831878293 
7965.9658439146215 
7965.965843914622 
7965.965843914622 
7965.965843914622 
7965.965843842458 
7965.965840361909 
7965.965779360704 
7965.964891348818 
7965.954512334502 
7965.860067576933 
7965.213584398831 
7961.97471721882 
7950.01132130879 
7914.248017804046 
7825.70174550634 
7636.654848827692 
7283.198738547433 
6692.560653714929 
5784.213408477343 
4125.835826057631 
3011.645702183373 
63277.92121303408 
63277.92121303408 
63277.92121303408 
63277.92121295637 
63277.921212589994 
63277.92120447426 
63277.92105148554 
63277.91862658082 
63277.88722234604 
63277.56338160849 
63274.982574074136 
63259.57394323065 
63191.88265386519 
62967.53532405161 
62361.95458768633 
60998.15006234686 
58339.453812428204 
53772.715973571234 
46566.90240313065 
33067.155809732285 
23937.17882885892 
387315.1318969369 
387315.1318969369 
387315.1318969369 
387315.13189685915 
387315.13189620967 
387315.13187933987 
387315.13153978926 
387315.12577953585 
387315.0448434225 
387314.1242309695 
387305.8660936733 
387249.1585245079 
386959.0205476807 
385859.87872930255 
382642.81791279814 
374929.9155531764 
359354.1628162221 
331907.0323835964 
287610.7737571492 
202563.52111477352 
144587.00947329588 
1754154.5568260145 
1754154.5568260145 
1754154.5568260145 
1754154.5568260145 
1754154.5568247936 
1754154.5567928748 
1754154.5561199686 
1754154.5440445612 
1754154.362926002 
1754152.1364762662 
1754130.2262043 
1753962.3087084726 
1752989.509740965 
1748822.0854878994 
1735503.2849753145 
1701851.4820872792 
1631834.116854452 
1507030.0632788073 
1302637.5293684467 
903584.1548005792 
630460.934151011 
5568170.684721062 
5568170.684721062 
5568170.684721062 
5568170.684721062 
5568170.684718747 
5568170.684663707 
5568170.683461575 
5568170.6608972745 
5568170.304311196 
5568165.643026827 
5568116.309275759 
5567704.364722576 
5565070.441374191 
5552560.6917747315 
5509107.367653066 
5395503.556616011 
5156202.228475771 
4736023.6874832325 
4052803.9057247126 
2728283.090596644 
1825711.5942930323 
11576449.023521947 
11576449.023521869 
11576449.023521792 
11576449.02352187 
11576449.023518395 
11576449.0234322 
11576449.021487169 
11576448.983648848 
11576448.360456906 
11576439.811151274 
11576344.049068656 
11575489.324418098 
11569588.05919572 
11539127.427559912 
11425316.216283005 
11119570.567443317 
10494753.356172342 
9447416.1995649 
7841164.64157766 
4933880.231312426 
2993066.70506421 
14994769.08766097 
14994769.087660892 
14994769.087660816 
14994769.087660892 
14994769.087656124 
14994769.087532684 
14994769.08466949 
14994769.027399724 
14994768.053462576 
14994754.185873756 
14994591.94787798 
14993068.318695853 
14981910.397064965 
14920449.72938257 
14676321.619951924 
14002666.97672199 
12699218.583524887 
10724359.862406116 
8050282.440589353 
4182580.930213094 
1836342.8945179363 
13595483.705980532 
13595483.705980532 
13595483.70598061 
13595483.705980694 
13595483.705974566 
13595483.70581173 
13595483.701959843 
13595483.623294663 
13595482.253071625 
13595462.194609877 
13595219.835021663 
13592856.365309969 
13574774.831186656 
13470163.076105269 
13033773.792497795 
11795868.325810578 
9519539.15596834 
6609446.035170016 
3356430.7846953 
658235.288802925 
-310895.1849408208 
12939954.499177681 
12939954.499177681 
12939954.49917776 
12939954.499177698 
12939954.499170348 
12939954.49897224 
12939954.494221274 
12939954.395775016 
12939952.652207656 
12939926.633377187 
12939605.165538557 
12936387.600400636 
12911015.259040132 
12759069.319539446 
12101839.495617025 
10188478.538998492 
6783686.4012190355 
3316018.6623170194 
631589.6249306706 
-201412.54680120747 
201513.52044582606 
13562292.192266297 
13562292.192266297 
13562292.192266297 
13562292.192266008 
13562292.192257721 
13562292.192034926 
13562292.186650999 
13562292.074127559 
13562290.061581362 
13562259.687557496 
13561879.45897 
13558015.19048318 
13526994.988138653 
13337372.66246379 
12498560.06050009 
10009684.223332163 
5641450.705305847 
2082844.566434378 
1058563.473641042 
166780.25600035163 
-703272.35695802 
13308436.562335087 
13308436.562335087 
13308436.562335087 
13308436.562334798 
13308436.562326148 
13308436.56209428 
13308436.556481814 
13308436.438847866 
13308434.328063795 
13308402.352314482 